V -t * -v 1.0a5 -a 0
A -t * -n 1 -p 0 -o 0x7fffffff -c 30 -a 1
A -t * -h 1 -m 1073741823 -s 0
n -t * -a 4 -s 4 -S UP -v circle -c black -i black
n -t * -a 0 -s 0 -S UP -v circle -c black -i black
n -t * -a 1 -s 1 -S UP -v circle -c black -i black
n -t * -a 2 -s 2 -S UP -v circle -c black -i black
n -t * -a 3 -s 3 -S UP -v circle -c black -i black
X -t * -n 5 -r 10000000 -D 0.0000256 -o left
L -t * -s 5 -d 0 -o up
L -t * -s 5 -d 1 -o down
L -t * -s 5 -d 2 -o up
L -t * -s 5 -d 3 -o down
L -t * -s 5 -d 4 -o up
h -t 0.2 -s 1 -d 5 -p cbr -e 1024 -c 0 -i 0 -a 0 -x {1.0 0.0 0 ------- null}
h -t 0.2 -s 2 -d 5 -p cbr -e 1024 -c 0 -i 1 -a 0 -x {2.0 0.1 0 ------- null}
h -t 0.2 -s 3 -d 5 -p cbr -e 1024 -c 0 -i 2 -a 0 -x {3.0 0.2 0 ------- null}
h -t 0.2 -s 4 -d 5 -p cbr -e 1024 -c 0 -i 3 -a 0 -x {4.0 0.3 0 ------- null}
+ -t 0.2000256 -s 1 -d 5 -p cbr -e 1024 -c 0 -i 0 -a 0 -x {1.0 0.0 0 ------- null}
- -t 0.2000256 -s 1 -d 5 -p cbr -e 1024 -c 0 -i 0 -a 0 -x {1.0 0.0 0 ------- null}
h -t 0.2000256 -s 1 -d 5 -p cbr -e 1024 -c 0 -i 0 -a 0 -x {1.0 0.0 -1 ------- null}
+ -t 0.2000256 -s 2 -d 5 -p cbr -e 1024 -c 0 -i 1 -a 0 -x {2.0 0.1 0 ------- null}
- -t 0.2000256 -s 2 -d 5 -p cbr -e 1024 -c 0 -i 1 -a 0 -x {2.0 0.1 0 ------- null}
h -t 0.2000256 -s 2 -d 5 -p cbr -e 1024 -c 0 -i 1 -a 0 -x {2.0 0.1 -1 ------- null}
+ -t 0.2000256 -s 3 -d 5 -p cbr -e 1024 -c 0 -i 2 -a 0 -x {3.0 0.2 0 ------- null}
- -t 0.2000256 -s 3 -d 5 -p cbr -e 1024 -c 0 -i 2 -a 0 -x {3.0 0.2 0 ------- null}
h -t 0.2000256 -s 3 -d 5 -p cbr -e 1024 -c 0 -i 2 -a 0 -x {3.0 0.2 -1 ------- null}
+ -t 0.2000256 -s 4 -d 5 -p cbr -e 1024 -c 0 -i 3 -a 0 -x {4.0 0.3 0 ------- null}
- -t 0.2000256 -s 4 -d 5 -p cbr -e 1024 -c 0 -i 3 -a 0 -x {4.0 0.3 0 ------- null}
h -t 0.2000256 -s 4 -d 5 -p cbr -e 1024 -c 0 -i 3 -a 0 -x {4.0 0.3 -1 ------- null}
h -t 0.20068313030277 -s 1 -d 5 -p cbr -e 1024 -c 0 -i 4 -a 0 -x {1.0 0.0 1 ------- null}
h -t 0.200702060763345 -s 3 -d 5 -p cbr -e 1024 -c 0 -i 5 -a 0 -x {3.0 0.2 1 ------- null}
+ -t 0.20070873030277 -s 1 -d 5 -p cbr -e 1024 -c 0 -i 4 -a 0 -x {1.0 0.0 1 ------- null}
+ -t 0.200727660763345 -s 3 -d 5 -p cbr -e 1024 -c 0 -i 5 -a 0 -x {3.0 0.2 1 ------- null}
h -t 0.200802983487234 -s 4 -d 5 -p cbr -e 1024 -c 0 -i 6 -a 0 -x {4.0 0.3 1 ------- null}
+ -t 0.200828583487234 -s 4 -d 5 -p cbr -e 1024 -c 0 -i 6 -a 0 -x {4.0 0.3 1 ------- null}
- -t 0.2008824 -s 3 -d 5 -p cbr -e 1024 -c 0 -i 5 -a 0 -x {3.0 0.2 1 ------- null}
h -t 0.2008824 -s 3 -d 5 -p cbr -e 1024 -c 0 -i 5 -a 0 -x {3.0 0.2 -1 ------- null}
r -t 0.2009024 -s 5 -d 0 -p cbr -e 1024 -c 0 -i 2 -a 0 -x {3.0 0.2 0 ------- null}
h -t 0.201441629137555 -s 2 -d 5 -p cbr -e 1024 -c 0 -i 7 -a 0 -x {2.0 0.1 1 ------- null}
+ -t 0.201467229137555 -s 2 -d 5 -p cbr -e 1024 -c 0 -i 7 -a 0 -x {2.0 0.1 1 ------- null}
h -t 0.201686106561301 -s 1 -d 5 -p cbr -e 1024 -c 0 -i 8 -a 0 -x {1.0 0.0 2 ------- null}
+ -t 0.201711706561301 -s 1 -d 5 -p cbr -e 1024 -c 0 -i 8 -a 0 -x {1.0 0.0 2 ------- null}
- -t 0.201756 -s 1 -d 5 -p cbr -e 1024 -c 0 -i 4 -a 0 -x {1.0 0.0 1 ------- null}
h -t 0.201756 -s 1 -d 5 -p cbr -e 1024 -c 0 -i 4 -a 0 -x {1.0 0.0 -1 ------- null}
r -t 0.201776 -s 5 -d 0 -p cbr -e 1024 -c 0 -i 0 -a 0 -x {1.0 0.0 0 ------- null}
h -t 0.201907646094201 -s 4 -d 5 -p cbr -e 1024 -c 0 -i 9 -a 0 -x {4.0 0.3 2 ------- null}
+ -t 0.201933246094201 -s 4 -d 5 -p cbr -e 1024 -c 0 -i 9 -a 0 -x {4.0 0.3 2 ------- null}
h -t 0.202256991305618 -s 3 -d 5 -p cbr -e 1024 -c 0 -i 10 -a 0 -x {3.0 0.2 2 ------- null}
+ -t 0.202282591305618 -s 3 -d 5 -p cbr -e 1024 -c 0 -i 10 -a 0 -x {3.0 0.2 2 ------- null}
h -t 0.20260744066786 -s 1 -d 5 -p cbr -e 1024 -c 0 -i 11 -a 0 -x {1.0 0.0 3 ------- null}
+ -t 0.20263304066786 -s 1 -d 5 -p cbr -e 1024 -c 0 -i 11 -a 0 -x {1.0 0.0 3 ------- null}
h -t 0.202702728468178 -s 2 -d 5 -p cbr -e 1024 -c 0 -i 12 -a 0 -x {2.0 0.1 2 ------- null}
+ -t 0.202728328468178 -s 2 -d 5 -p cbr -e 1024 -c 0 -i 12 -a 0 -x {2.0 0.1 2 ------- null}
- -t 0.2030048 -s 1 -d 5 -p cbr -e 1024 -c 0 -i 8 -a 0 -x {1.0 0.0 2 ------- null}
h -t 0.2030048 -s 1 -d 5 -p cbr -e 1024 -c 0 -i 8 -a 0 -x {1.0 0.0 -1 ------- null}
r -t 0.2030248 -s 5 -d 0 -p cbr -e 1024 -c 0 -i 4 -a 0 -x {1.0 0.0 1 ------- null}
h -t 0.203269011363034 -s 3 -d 5 -p cbr -e 1024 -c 0 -i 13 -a 0 -x {3.0 0.2 3 ------- null}
+ -t 0.203294611363034 -s 3 -d 5 -p cbr -e 1024 -c 0 -i 13 -a 0 -x {3.0 0.2 3 ------- null}
h -t 0.203767321955022 -s 4 -d 5 -p cbr -e 1024 -c 0 -i 14 -a 0 -x {4.0 0.3 3 ------- null}
+ -t 0.203792921955022 -s 4 -d 5 -p cbr -e 1024 -c 0 -i 14 -a 0 -x {4.0 0.3 3 ------- null}
- -t 0.2038656 -s 1 -d 5 -p cbr -e 1024 -c 0 -i 11 -a 0 -x {1.0 0.0 3 ------- null}
h -t 0.2038656 -s 1 -d 5 -p cbr -e 1024 -c 0 -i 11 -a 0 -x {1.0 0.0 -1 ------- null}
r -t 0.2038856 -s 5 -d 0 -p cbr -e 1024 -c 0 -i 8 -a 0 -x {1.0 0.0 2 ------- null}
h -t 0.20431020222525 -s 2 -d 5 -p cbr -e 1024 -c 0 -i 15 -a 0 -x {2.0 0.1 3 ------- null}
+ -t 0.20433580222525 -s 2 -d 5 -p cbr -e 1024 -c 0 -i 15 -a 0 -x {2.0 0.1 3 ------- null}
h -t 0.204452151480121 -s 1 -d 5 -p cbr -e 1024 -c 0 -i 16 -a 0 -x {1.0 0.0 4 ------- null}
+ -t 0.204477751480121 -s 1 -d 5 -p cbr -e 1024 -c 0 -i 16 -a 0 -x {1.0 0.0 4 ------- null}
h -t 0.204503556041428 -s 3 -d 5 -p cbr -e 1024 -c 0 -i 17 -a 0 -x {3.0 0.2 4 ------- null}
+ -t 0.204529156041428 -s 3 -d 5 -p cbr -e 1024 -c 0 -i 17 -a 0 -x {3.0 0.2 4 ------- null}
h -t 0.204705804631837 -s 4 -d 5 -p cbr -e 1024 -c 0 -i 18 -a 0 -x {4.0 0.3 4 ------- null}
+ -t 0.204731404631837 -s 4 -d 5 -p cbr -e 1024 -c 0 -i 18 -a 0 -x {4.0 0.3 4 ------- null}
- -t 0.2048344 -s 2 -d 5 -p cbr -e 1024 -c 0 -i 7 -a 0 -x {2.0 0.1 1 ------- null}
h -t 0.2048344 -s 2 -d 5 -p cbr -e 1024 -c 0 -i 7 -a 0 -x {2.0 0.1 -1 ------- null}
r -t 0.2048544 -s 5 -d 0 -p cbr -e 1024 -c 0 -i 1 -a 0 -x {2.0 0.1 0 ------- null}
h -t 0.205007625876389 -s 2 -d 5 -p cbr -e 1024 -c 0 -i 19 -a 0 -x {2.0 0.1 4 ------- null}
+ -t 0.205033225876389 -s 2 -d 5 -p cbr -e 1024 -c 0 -i 19 -a 0 -x {2.0 0.1 4 ------- null}
h -t 0.205556548604808 -s 4 -d 5 -p cbr -e 1024 -c 0 -i 20 -a 0 -x {4.0 0.3 5 ------- null}
+ -t 0.205582148604808 -s 4 -d 5 -p cbr -e 1024 -c 0 -i 20 -a 0 -x {4.0 0.3 5 ------- null}
h -t 0.205644514260898 -s 3 -d 5 -p cbr -e 1024 -c 0 -i 21 -a 0 -x {3.0 0.2 5 ------- null}
+ -t 0.205670114260898 -s 3 -d 5 -p cbr -e 1024 -c 0 -i 21 -a 0 -x {3.0 0.2 5 ------- null}
- -t 0.2057464 -s 2 -d 5 -p cbr -e 1024 -c 0 -i 12 -a 0 -x {2.0 0.1 2 ------- null}
h -t 0.2057464 -s 2 -d 5 -p cbr -e 1024 -c 0 -i 12 -a 0 -x {2.0 0.1 -1 ------- null}
r -t 0.2057664 -s 5 -d 0 -p cbr -e 1024 -c 0 -i 7 -a 0 -x {2.0 0.1 1 ------- null}
h -t 0.205947228873578 -s 1 -d 5 -p cbr -e 1024 -c 0 -i 22 -a 0 -x {1.0 0.0 5 ------- null}
+ -t 0.205972828873578 -s 1 -d 5 -p cbr -e 1024 -c 0 -i 22 -a 0 -x {1.0 0.0 5 ------- null}
h -t 0.206434156135306 -s 2 -d 5 -p cbr -e 1024 -c 0 -i 23 -a 0 -x {2.0 0.1 5 ------- null}
+ -t 0.206459756135306 -s 2 -d 5 -p cbr -e 1024 -c 0 -i 23 -a 0 -x {2.0 0.1 5 ------- null}
- -t 0.2066584 -s 2 -d 5 -p cbr -e 1024 -c 0 -i 15 -a 0 -x {2.0 0.1 3 ------- null}
h -t 0.2066584 -s 2 -d 5 -p cbr -e 1024 -c 0 -i 15 -a 0 -x {2.0 0.1 -1 ------- null}
h -t 0.206667520675899 -s 1 -d 5 -p cbr -e 1024 -c 0 -i 24 -a 0 -x {1.0 0.0 6 ------- null}
r -t 0.2066784 -s 5 -d 0 -p cbr -e 1024 -c 0 -i 12 -a 0 -x {2.0 0.1 2 ------- null}
h -t 0.206684658163187 -s 3 -d 5 -p cbr -e 1024 -c 0 -i 25 -a 0 -x {3.0 0.2 6 ------- null}
+ -t 0.206693120675899 -s 1 -d 5 -p cbr -e 1024 -c 0 -i 24 -a 0 -x {1.0 0.0 6 ------- null}
+ -t 0.206710258163187 -s 3 -d 5 -p cbr -e 1024 -c 0 -i 25 -a 0 -x {3.0 0.2 6 ------- null}
h -t 0.207436142484299 -s 4 -d 5 -p cbr -e 1024 -c 0 -i 26 -a 0 -x {4.0 0.3 6 ------- null}
+ -t 0.207461742484299 -s 4 -d 5 -p cbr -e 1024 -c 0 -i 26 -a 0 -x {4.0 0.3 6 ------- null}
- -t 0.207532 -s 2 -d 5 -p cbr -e 1024 -c 0 -i 19 -a 0 -x {2.0 0.1 4 ------- null}
h -t 0.207532 -s 2 -d 5 -p cbr -e 1024 -c 0 -i 19 -a 0 -x {2.0 0.1 -1 ------- null}
r -t 0.207552 -s 5 -d 0 -p cbr -e 1024 -c 0 -i 15 -a 0 -x {2.0 0.1 3 ------- null}
h -t 0.207563719611577 -s 2 -d 5 -p cbr -e 1024 -c 0 -i 27 -a 0 -x {2.0 0.1 6 ------- null}
+ -t 0.207589319611577 -s 2 -d 5 -p cbr -e 1024 -c 0 -i 27 -a 0 -x {2.0 0.1 6 ------- null}
h -t 0.208316145837756 -s 3 -d 5 -p cbr -e 1024 -c 0 -i 28 -a 0 -x {3.0 0.2 7 ------- null}
+ -t 0.208341745837756 -s 3 -d 5 -p cbr -e 1024 -c 0 -i 28 -a 0 -x {3.0 0.2 7 ------- null}
h -t 0.20836283224202 -s 4 -d 5 -p cbr -e 1024 -c 0 -i 29 -a 0 -x {4.0 0.3 7 ------- null}
+ -t 0.20838843224202 -s 4 -d 5 -p cbr -e 1024 -c 0 -i 29 -a 0 -x {4.0 0.3 7 ------- null}
- -t 0.208444 -s 2 -d 5 -p cbr -e 1024 -c 0 -i 23 -a 0 -x {2.0 0.1 5 ------- null}
h -t 0.208444 -s 2 -d 5 -p cbr -e 1024 -c 0 -i 23 -a 0 -x {2.0 0.1 -1 ------- null}
r -t 0.208464 -s 5 -d 0 -p cbr -e 1024 -c 0 -i 19 -a 0 -x {2.0 0.1 4 ------- null}
h -t 0.20864290704622 -s 1 -d 5 -p cbr -e 1024 -c 0 -i 30 -a 0 -x {1.0 0.0 7 ------- null}
+ -t 0.20866850704622 -s 1 -d 5 -p cbr -e 1024 -c 0 -i 30 -a 0 -x {1.0 0.0 7 ------- null}
h -t 0.208917750310759 -s 2 -d 5 -p cbr -e 1024 -c 0 -i 31 -a 0 -x {2.0 0.1 7 ------- null}
+ -t 0.208943350310759 -s 2 -d 5 -p cbr -e 1024 -c 0 -i 31 -a 0 -x {2.0 0.1 7 ------- null}
h -t 0.209067261313229 -s 3 -d 5 -p cbr -e 1024 -c 0 -i 32 -a 0 -x {3.0 0.2 8 ------- null}
+ -t 0.209092861313229 -s 3 -d 5 -p cbr -e 1024 -c 0 -i 32 -a 0 -x {3.0 0.2 8 ------- null}
- -t 0.209284 -s 2 -d 5 -p cbr -e 1024 -c 0 -i 27 -a 0 -x {2.0 0.1 6 ------- null}
h -t 0.209284 -s 2 -d 5 -p cbr -e 1024 -c 0 -i 27 -a 0 -x {2.0 0.1 -1 ------- null}
r -t 0.209304 -s 5 -d 0 -p cbr -e 1024 -c 0 -i 23 -a 0 -x {2.0 0.1 5 ------- null}
h -t 0.210053157869191 -s 1 -d 5 -p cbr -e 1024 -c 0 -i 33 -a 0 -x {1.0 0.0 8 ------- null}
+ -t 0.210078757869191 -s 1 -d 5 -p cbr -e 1024 -c 0 -i 33 -a 0 -x {1.0 0.0 8 ------- null}
- -t 0.2101448 -s 2 -d 5 -p cbr -e 1024 -c 0 -i 31 -a 0 -x {2.0 0.1 7 ------- null}
h -t 0.2101448 -s 2 -d 5 -p cbr -e 1024 -c 0 -i 31 -a 0 -x {2.0 0.1 -1 ------- null}
r -t 0.2101648 -s 5 -d 0 -p cbr -e 1024 -c 0 -i 27 -a 0 -x {2.0 0.1 6 ------- null}
h -t 0.210226656258891 -s 4 -d 5 -p cbr -e 1024 -c 0 -i 34 -a 0 -x {4.0 0.3 8 ------- null}
+ -t 0.21025225625889 -s 4 -d 5 -p cbr -e 1024 -c 0 -i 34 -a 0 -x {4.0 0.3 8 ------- null}
h -t 0.210325033755924 -s 3 -d 5 -p cbr -e 1024 -c 0 -i 35 -a 0 -x {3.0 0.2 9 ------- null}
+ -t 0.210350633755924 -s 3 -d 5 -p cbr -e 1024 -c 0 -i 35 -a 0 -x {3.0 0.2 9 ------- null}
h -t 0.210604061394839 -s 2 -d 5 -p cbr -e 1024 -c 0 -i 36 -a 0 -x {2.0 0.1 8 ------- null}
+ -t 0.210629661394838 -s 2 -d 5 -p cbr -e 1024 -c 0 -i 36 -a 0 -x {2.0 0.1 8 ------- null}
- -t 0.2110568 -s 2 -d 5 -p cbr -e 1024 -c 0 -i 36 -a 0 -x {2.0 0.1 8 ------- null}
h -t 0.2110568 -s 2 -d 5 -p cbr -e 1024 -c 0 -i 36 -a 0 -x {2.0 0.1 -1 ------- null}
r -t 0.2110768 -s 5 -d 0 -p cbr -e 1024 -c 0 -i 31 -a 0 -x {2.0 0.1 7 ------- null}
h -t 0.211709561831754 -s 4 -d 5 -p cbr -e 1024 -c 0 -i 37 -a 0 -x {4.0 0.3 9 ------- null}
+ -t 0.211735161831754 -s 4 -d 5 -p cbr -e 1024 -c 0 -i 37 -a 0 -x {4.0 0.3 9 ------- null}
h -t 0.211968512517715 -s 1 -d 5 -p cbr -e 1024 -c 0 -i 38 -a 0 -x {1.0 0.0 9 ------- null}
r -t 0.2119888 -s 5 -d 0 -p cbr -e 1024 -c 0 -i 36 -a 0 -x {2.0 0.1 8 ------- null}
+ -t 0.211994112517715 -s 1 -d 5 -p cbr -e 1024 -c 0 -i 38 -a 0 -x {1.0 0.0 9 ------- null}
h -t 0.212012368025147 -s 3 -d 5 -p cbr -e 1024 -c 0 -i 39 -a 0 -x {3.0 0.2 10 ------- null}
+ -t 0.212037968025147 -s 3 -d 5 -p cbr -e 1024 -c 0 -i 39 -a 0 -x {3.0 0.2 10 ------- null}
h -t 0.212381741591543 -s 2 -d 5 -p cbr -e 1024 -c 0 -i 40 -a 0 -x {2.0 0.1 9 ------- null}
+ -t 0.212407341591543 -s 2 -d 5 -p cbr -e 1024 -c 0 -i 40 -a 0 -x {2.0 0.1 9 ------- null}
- -t 0.212407341591543 -s 2 -d 5 -p cbr -e 1024 -c 0 -i 40 -a 0 -x {2.0 0.1 9 ------- null}
h -t 0.212407341591543 -s 2 -d 5 -p cbr -e 1024 -c 0 -i 40 -a 0 -x {2.0 0.1 -1 ------- null}
r -t 0.213267341591543 -s 5 -d 0 -p cbr -e 1024 -c 0 -i 40 -a 0 -x {2.0 0.1 9 ------- null}
h -t 0.213269192462755 -s 2 -d 5 -p cbr -e 1024 -c 0 -i 41 -a 0 -x {2.0 0.1 10 ------- null}
+ -t 0.213294792462755 -s 2 -d 5 -p cbr -e 1024 -c 0 -i 41 -a 0 -x {2.0 0.1 10 ------- null}
- -t 0.213294792462755 -s 2 -d 5 -p cbr -e 1024 -c 0 -i 41 -a 0 -x {2.0 0.1 10 ------- null}
h -t 0.213294792462755 -s 2 -d 5 -p cbr -e 1024 -c 0 -i 41 -a 0 -x {2.0 0.1 -1 ------- null}
h -t 0.213505770254618 -s 4 -d 5 -p cbr -e 1024 -c 0 -i 42 -a 0 -x {4.0 0.3 10 ------- null}
+ -t 0.213531370254618 -s 4 -d 5 -p cbr -e 1024 -c 0 -i 42 -a 0 -x {4.0 0.3 10 ------- null}
h -t 0.213600968737927 -s 3 -d 5 -p cbr -e 1024 -c 0 -i 43 -a 0 -x {3.0 0.2 11 ------- null}
+ -t 0.213626568737927 -s 3 -d 5 -p cbr -e 1024 -c 0 -i 43 -a 0 -x {3.0 0.2 11 ------- null}
h -t 0.213721293382121 -s 1 -d 5 -p cbr -e 1024 -c 0 -i 44 -a 0 -x {1.0 0.0 10 ------- null}
+ -t 0.213746893382121 -s 1 -d 5 -p cbr -e 1024 -c 0 -i 44 -a 0 -x {1.0 0.0 10 ------- null}
r -t 0.214154792462755 -s 5 -d 0 -p cbr -e 1024 -c 0 -i 41 -a 0 -x {2.0 0.1 10 ------- null}
h -t 0.21440419835262 -s 1 -d 5 -p cbr -e 1024 -c 0 -i 45 -a 0 -x {1.0 0.0 11 ------- null}
+ -t 0.21442979835262 -s 1 -d 5 -p cbr -e 1024 -c 0 -i 45 -a 0 -x {1.0 0.0 11 ------- null}
h -t 0.214506699900947 -s 2 -d 5 -p cbr -e 1024 -c 0 -i 46 -a 0 -x {2.0 0.1 11 ------- null}
+ -t 0.214532299900947 -s 2 -d 5 -p cbr -e 1024 -c 0 -i 46 -a 0 -x {2.0 0.1 11 ------- null}
- -t 0.214532299900947 -s 2 -d 5 -p cbr -e 1024 -c 0 -i 46 -a 0 -x {2.0 0.1 11 ------- null}
h -t 0.214532299900947 -s 2 -d 5 -p cbr -e 1024 -c 0 -i 46 -a 0 -x {2.0 0.1 -1 ------- null}
h -t 0.21479372918947 -s 3 -d 5 -p cbr -e 1024 -c 0 -i 47 -a 0 -x {3.0 0.2 12 ------- null}
+ -t 0.21481932918947 -s 3 -d 5 -p cbr -e 1024 -c 0 -i 47 -a 0 -x {3.0 0.2 12 ------- null}
h -t 0.214934076881445 -s 4 -d 5 -p cbr -e 1024 -c 0 -i 48 -a 0 -x {4.0 0.3 11 ------- null}
+ -t 0.214959676881445 -s 4 -d 5 -p cbr -e 1024 -c 0 -i 48 -a 0 -x {4.0 0.3 11 ------- null}
h -t 0.215200774629829 -s 1 -d 5 -p cbr -e 1024 -c 0 -i 49 -a 0 -x {1.0 0.0 12 ------- null}
+ -t 0.215226374629829 -s 1 -d 5 -p cbr -e 1024 -c 0 -i 49 -a 0 -x {1.0 0.0 12 ------- null}
- -t 0.215368 -s 4 -d 5 -p cbr -e 1024 -c 0 -i 6 -a 0 -x {4.0 0.3 1 ------- null}
h -t 0.215368 -s 4 -d 5 -p cbr -e 1024 -c 0 -i 6 -a 0 -x {4.0 0.3 -1 ------- null}
r -t 0.215388 -s 5 -d 0 -p cbr -e 1024 -c 0 -i 3 -a 0 -x {4.0 0.3 0 ------- null}
h -t 0.215642949999207 -s 2 -d 5 -p cbr -e 1024 -c 0 -i 50 -a 0 -x {2.0 0.1 12 ------- null}
+ -t 0.215668549999207 -s 2 -d 5 -p cbr -e 1024 -c 0 -i 50 -a 0 -x {2.0 0.1 12 ------- null}
h -t 0.215928213792344 -s 1 -d 5 -p cbr -e 1024 -c 0 -i 51 -a 0 -x {1.0 0.0 13 ------- null}
+ -t 0.215953813792344 -s 1 -d 5 -p cbr -e 1024 -c 0 -i 51 -a 0 -x {1.0 0.0 13 ------- null}
- -t 0.216344 -s 4 -d 5 -p cbr -e 1024 -c 0 -i 9 -a 0 -x {4.0 0.3 2 ------- null}
h -t 0.216344 -s 4 -d 5 -p cbr -e 1024 -c 0 -i 9 -a 0 -x {4.0 0.3 -1 ------- null}
r -t 0.216364 -s 5 -d 0 -p cbr -e 1024 -c 0 -i 6 -a 0 -x {4.0 0.3 1 ------- null}
h -t 0.21642624433722 -s 3 -d 5 -p cbr -e 1024 -c 0 -i 52 -a 0 -x {3.0 0.2 13 ------- null}
+ -t 0.21645184433722 -s 3 -d 5 -p cbr -e 1024 -c 0 -i 52 -a 0 -x {3.0 0.2 13 ------- null}
h -t 0.216861844537988 -s 4 -d 5 -p cbr -e 1024 -c 0 -i 53 -a 0 -x {4.0 0.3 12 ------- null}
+ -t 0.216887444537988 -s 4 -d 5 -p cbr -e 1024 -c 0 -i 53 -a 0 -x {4.0 0.3 12 ------- null}
- -t 0.2172048 -s 4 -d 5 -p cbr -e 1024 -c 0 -i 14 -a 0 -x {4.0 0.3 3 ------- null}
h -t 0.2172048 -s 4 -d 5 -p cbr -e 1024 -c 0 -i 14 -a 0 -x {4.0 0.3 -1 ------- null}
r -t 0.2172248 -s 5 -d 0 -p cbr -e 1024 -c 0 -i 9 -a 0 -x {4.0 0.3 2 ------- null}
h -t 0.217527104036059 -s 2 -d 5 -p cbr -e 1024 -c 0 -i 54 -a 0 -x {2.0 0.1 13 ------- null}
+ -t 0.217552704036059 -s 2 -d 5 -p cbr -e 1024 -c 0 -i 54 -a 0 -x {2.0 0.1 13 ------- null}
h -t 0.217711109526373 -s 1 -d 5 -p cbr -e 1024 -c 0 -i 55 -a 0 -x {1.0 0.0 14 ------- null}
+ -t 0.217736709526373 -s 1 -d 5 -p cbr -e 1024 -c 0 -i 55 -a 0 -x {1.0 0.0 14 ------- null}
- -t 0.2180656 -s 4 -d 5 -p cbr -e 1024 -c 0 -i 18 -a 0 -x {4.0 0.3 4 ------- null}
h -t 0.2180656 -s 4 -d 5 -p cbr -e 1024 -c 0 -i 18 -a 0 -x {4.0 0.3 -1 ------- null}
r -t 0.2180856 -s 5 -d 0 -p cbr -e 1024 -c 0 -i 14 -a 0 -x {4.0 0.3 3 ------- null}
h -t 0.218140059161035 -s 3 -d 5 -p cbr -e 1024 -c 0 -i 56 -a 0 -x {3.0 0.2 14 ------- null}
+ -t 0.218165659161035 -s 3 -d 5 -p cbr -e 1024 -c 0 -i 56 -a 0 -x {3.0 0.2 14 ------- null}
h -t 0.218384678115142 -s 4 -d 5 -p cbr -e 1024 -c 0 -i 57 -a 0 -x {4.0 0.3 13 ------- null}
+ -t 0.218410278115142 -s 4 -d 5 -p cbr -e 1024 -c 0 -i 57 -a 0 -x {4.0 0.3 13 ------- null}
h -t 0.218677240047252 -s 1 -d 5 -p cbr -e 1024 -c 0 -i 58 -a 0 -x {1.0 0.0 15 ------- null}
+ -t 0.218702840047252 -s 1 -d 5 -p cbr -e 1024 -c 0 -i 58 -a 0 -x {1.0 0.0 15 ------- null}
h -t 0.218825893006009 -s 2 -d 5 -p cbr -e 1024 -c 0 -i 59 -a 0 -x {2.0 0.1 14 ------- null}
+ -t 0.218851493006009 -s 2 -d 5 -p cbr -e 1024 -c 0 -i 59 -a 0 -x {2.0 0.1 14 ------- null}
- -t 0.2189776 -s 4 -d 5 -p cbr -e 1024 -c 0 -i 20 -a 0 -x {4.0 0.3 5 ------- null}
h -t 0.2189776 -s 4 -d 5 -p cbr -e 1024 -c 0 -i 20 -a 0 -x {4.0 0.3 -1 ------- null}
r -t 0.2189976 -s 5 -d 0 -p cbr -e 1024 -c 0 -i 18 -a 0 -x {4.0 0.3 4 ------- null}
h -t 0.219419679838011 -s 3 -d 5 -p cbr -e 1024 -c 0 -i 60 -a 0 -x {3.0 0.2 15 ------- null}
+ -t 0.219445279838011 -s 3 -d 5 -p cbr -e 1024 -c 0 -i 60 -a 0 -x {3.0 0.2 15 ------- null}
h -t 0.219519559589921 -s 4 -d 5 -p cbr -e 1024 -c 0 -i 61 -a 0 -x {4.0 0.3 14 ------- null}
h -t 0.219522623209047 -s 1 -d 5 -p cbr -e 1024 -c 0 -i 62 -a 0 -x {1.0 0.0 16 ------- null}
+ -t 0.219545159589921 -s 4 -d 5 -p cbr -e 1024 -c 0 -i 61 -a 0 -x {4.0 0.3 14 ------- null}
+ -t 0.219548223209047 -s 1 -d 5 -p cbr -e 1024 -c 0 -i 62 -a 0 -x {1.0 0.0 16 ------- null}
- -t 0.2198384 -s 4 -d 5 -p cbr -e 1024 -c 0 -i 26 -a 0 -x {4.0 0.3 6 ------- null}
h -t 0.2198384 -s 4 -d 5 -p cbr -e 1024 -c 0 -i 26 -a 0 -x {4.0 0.3 -1 ------- null}
r -t 0.2198584 -s 5 -d 0 -p cbr -e 1024 -c 0 -i 20 -a 0 -x {4.0 0.3 5 ------- null}
- -t 0.2206784 -s 4 -d 5 -p cbr -e 1024 -c 0 -i 29 -a 0 -x {4.0 0.3 7 ------- null}
h -t 0.2206784 -s 4 -d 5 -p cbr -e 1024 -c 0 -i 29 -a 0 -x {4.0 0.3 -1 ------- null}
h -t 0.220679790192425 -s 3 -d 5 -p cbr -e 1024 -c 0 -i 63 -a 0 -x {3.0 0.2 16 ------- null}
r -t 0.2206984 -s 5 -d 0 -p cbr -e 1024 -c 0 -i 26 -a 0 -x {4.0 0.3 6 ------- null}
+ -t 0.220705390192425 -s 3 -d 5 -p cbr -e 1024 -c 0 -i 63 -a 0 -x {3.0 0.2 16 ------- null}
h -t 0.220736560453442 -s 2 -d 5 -p cbr -e 1024 -c 0 -i 64 -a 0 -x {2.0 0.1 15 ------- null}
h -t 0.220758571033617 -s 4 -d 5 -p cbr -e 1024 -c 0 -i 65 -a 0 -x {4.0 0.3 15 ------- null}
+ -t 0.220762160453442 -s 2 -d 5 -p cbr -e 1024 -c 0 -i 64 -a 0 -x {2.0 0.1 15 ------- null}
+ -t 0.220784171033617 -s 4 -d 5 -p cbr -e 1024 -c 0 -i 65 -a 0 -x {4.0 0.3 15 ------- null}
h -t 0.221209702155166 -s 1 -d 5 -p cbr -e 1024 -c 0 -i 66 -a 0 -x {1.0 0.0 17 ------- null}
+ -t 0.221235302155166 -s 1 -d 5 -p cbr -e 1024 -c 0 -i 66 -a 0 -x {1.0 0.0 17 ------- null}
- -t 0.2215184 -s 4 -d 5 -p cbr -e 1024 -c 0 -i 34 -a 0 -x {4.0 0.3 8 ------- null}
h -t 0.2215184 -s 4 -d 5 -p cbr -e 1024 -c 0 -i 34 -a 0 -x {4.0 0.3 -1 ------- null}
r -t 0.2215384 -s 5 -d 0 -p cbr -e 1024 -c 0 -i 29 -a 0 -x {4.0 0.3 7 ------- null}
h -t 0.222024335089451 -s 3 -d 5 -p cbr -e 1024 -c 0 -i 67 -a 0 -x {3.0 0.2 17 ------- null}
+ -t 0.222049935089451 -s 3 -d 5 -p cbr -e 1024 -c 0 -i 67 -a 0 -x {3.0 0.2 17 ------- null}
h -t 0.222291690021197 -s 4 -d 5 -p cbr -e 1024 -c 0 -i 68 -a 0 -x {4.0 0.3 16 ------- null}
+ -t 0.222317290021197 -s 4 -d 5 -p cbr -e 1024 -c 0 -i 68 -a 0 -x {4.0 0.3 16 ------- null}
- -t 0.2223792 -s 4 -d 5 -p cbr -e 1024 -c 0 -i 37 -a 0 -x {4.0 0.3 9 ------- null}
h -t 0.2223792 -s 4 -d 5 -p cbr -e 1024 -c 0 -i 37 -a 0 -x {4.0 0.3 -1 ------- null}
r -t 0.2223992 -s 5 -d 0 -p cbr -e 1024 -c 0 -i 34 -a 0 -x {4.0 0.3 8 ------- null}
h -t 0.222643659233926 -s 2 -d 5 -p cbr -e 1024 -c 0 -i 69 -a 0 -x {2.0 0.1 16 ------- null}
+ -t 0.222669259233926 -s 2 -d 5 -p cbr -e 1024 -c 0 -i 69 -a 0 -x {2.0 0.1 16 ------- null}
h -t 0.222795050774156 -s 3 -d 5 -p cbr -e 1024 -c 0 -i 70 -a 0 -x {3.0 0.2 18 ------- null}
+ -t 0.222820650774156 -s 3 -d 5 -p cbr -e 1024 -c 0 -i 70 -a 0 -x {3.0 0.2 18 ------- null}
h -t 0.223053970937134 -s 1 -d 5 -p cbr -e 1024 -c 0 -i 71 -a 0 -x {1.0 0.0 18 ------- null}
+ -t 0.223079570937134 -s 1 -d 5 -p cbr -e 1024 -c 0 -i 71 -a 0 -x {1.0 0.0 18 ------- null}
h -t 0.223215590362787 -s 4 -d 5 -p cbr -e 1024 -c 0 -i 72 -a 0 -x {4.0 0.3 17 ------- null}
+ -t 0.223241190362787 -s 4 -d 5 -p cbr -e 1024 -c 0 -i 72 -a 0 -x {4.0 0.3 17 ------- null}
- -t 0.2232912 -s 4 -d 5 -p cbr -e 1024 -c 0 -i 42 -a 0 -x {4.0 0.3 10 ------- null}
h -t 0.2232912 -s 4 -d 5 -p cbr -e 1024 -c 0 -i 42 -a 0 -x {4.0 0.3 -1 ------- null}
r -t 0.2233112 -s 5 -d 0 -p cbr -e 1024 -c 0 -i 37 -a 0 -x {4.0 0.3 9 ------- null}
h -t 0.224046337114115 -s 1 -d 5 -p cbr -e 1024 -c 0 -i 73 -a 0 -x {1.0 0.0 19 ------- null}
+ -t 0.224071937114114 -s 1 -d 5 -p cbr -e 1024 -c 0 -i 73 -a 0 -x {1.0 0.0 19 ------- null}
h -t 0.224116172916396 -s 2 -d 5 -p cbr -e 1024 -c 0 -i 74 -a 0 -x {2.0 0.1 17 ------- null}
+ -t 0.224141772916396 -s 2 -d 5 -p cbr -e 1024 -c 0 -i 74 -a 0 -x {2.0 0.1 17 ------- null}
- -t 0.2242032 -s 4 -d 5 -p cbr -e 1024 -c 0 -i 48 -a 0 -x {4.0 0.3 11 ------- null}
h -t 0.2242032 -s 4 -d 5 -p cbr -e 1024 -c 0 -i 48 -a 0 -x {4.0 0.3 -1 ------- null}
r -t 0.2242232 -s 5 -d 0 -p cbr -e 1024 -c 0 -i 42 -a 0 -x {4.0 0.3 10 ------- null}
h -t 0.224441926997367 -s 3 -d 5 -p cbr -e 1024 -c 0 -i 75 -a 0 -x {3.0 0.2 19 ------- null}
+ -t 0.224467526997367 -s 3 -d 5 -p cbr -e 1024 -c 0 -i 75 -a 0 -x {3.0 0.2 19 ------- null}
h -t 0.225031813157857 -s 4 -d 5 -p cbr -e 1024 -c 0 -i 76 -a 0 -x {4.0 0.3 18 ------- null}
+ -t 0.225057413157857 -s 4 -d 5 -p cbr -e 1024 -c 0 -i 76 -a 0 -x {4.0 0.3 18 ------- null}
- -t 0.2251152 -s 4 -d 5 -p cbr -e 1024 -c 0 -i 53 -a 0 -x {4.0 0.3 12 ------- null}
h -t 0.2251152 -s 4 -d 5 -p cbr -e 1024 -c 0 -i 53 -a 0 -x {4.0 0.3 -1 ------- null}
r -t 0.2251352 -s 5 -d 0 -p cbr -e 1024 -c 0 -i 48 -a 0 -x {4.0 0.3 11 ------- null}
h -t 0.225668665367909 -s 2 -d 5 -p cbr -e 1024 -c 0 -i 77 -a 0 -x {2.0 0.1 18 ------- null}
+ -t 0.225694265367909 -s 2 -d 5 -p cbr -e 1024 -c 0 -i 77 -a 0 -x {2.0 0.1 18 ------- null}
h -t 0.225727856766853 -s 3 -d 5 -p cbr -e 1024 -c 0 -i 78 -a 0 -x {3.0 0.2 20 ------- null}
+ -t 0.225753456766853 -s 3 -d 5 -p cbr -e 1024 -c 0 -i 78 -a 0 -x {3.0 0.2 20 ------- null}
h -t 0.225813130292724 -s 1 -d 5 -p cbr -e 1024 -c 0 -i 79 -a 0 -x {1.0 0.0 20 ------- null}
+ -t 0.225838730292724 -s 1 -d 5 -p cbr -e 1024 -c 0 -i 79 -a 0 -x {1.0 0.0 20 ------- null}
- -t 0.2259552 -s 4 -d 5 -p cbr -e 1024 -c 0 -i 57 -a 0 -x {4.0 0.3 13 ------- null}
h -t 0.2259552 -s 4 -d 5 -p cbr -e 1024 -c 0 -i 57 -a 0 -x {4.0 0.3 -1 ------- null}
r -t 0.2259752 -s 5 -d 0 -p cbr -e 1024 -c 0 -i 53 -a 0 -x {4.0 0.3 12 ------- null}
- -t 0.2267952 -s 4 -d 5 -p cbr -e 1024 -c 0 -i 61 -a 0 -x {4.0 0.3 14 ------- null}
h -t 0.2267952 -s 4 -d 5 -p cbr -e 1024 -c 0 -i 61 -a 0 -x {4.0 0.3 -1 ------- null}
r -t 0.2268152 -s 5 -d 0 -p cbr -e 1024 -c 0 -i 57 -a 0 -x {4.0 0.3 13 ------- null}
h -t 0.226979349515322 -s 2 -d 5 -p cbr -e 1024 -c 0 -i 80 -a 0 -x {2.0 0.1 19 ------- null}
h -t 0.226997782373728 -s 4 -d 5 -p cbr -e 1024 -c 0 -i 81 -a 0 -x {4.0 0.3 19 ------- null}
+ -t 0.227004949515322 -s 2 -d 5 -p cbr -e 1024 -c 0 -i 80 -a 0 -x {2.0 0.1 19 ------- null}
+ -t 0.227023382373728 -s 4 -d 5 -p cbr -e 1024 -c 0 -i 81 -a 0 -x {4.0 0.3 19 ------- null}
- -t 0.2276352 -s 4 -d 5 -p cbr -e 1024 -c 0 -i 65 -a 0 -x {4.0 0.3 15 ------- null}
h -t 0.2276352 -s 4 -d 5 -p cbr -e 1024 -c 0 -i 65 -a 0 -x {4.0 0.3 -1 ------- null}
h -t 0.227641286980622 -s 3 -d 5 -p cbr -e 1024 -c 0 -i 82 -a 0 -x {3.0 0.2 21 ------- null}
r -t 0.2276552 -s 5 -d 0 -p cbr -e 1024 -c 0 -i 61 -a 0 -x {4.0 0.3 14 ------- null}
+ -t 0.227666886980622 -s 3 -d 5 -p cbr -e 1024 -c 0 -i 82 -a 0 -x {3.0 0.2 21 ------- null}
h -t 0.227803403351998 -s 1 -d 5 -p cbr -e 1024 -c 0 -i 83 -a 0 -x {1.0 0.0 21 ------- null}
+ -t 0.227829003351998 -s 1 -d 5 -p cbr -e 1024 -c 0 -i 83 -a 0 -x {1.0 0.0 21 ------- null}
h -t 0.227887698301162 -s 4 -d 5 -p cbr -e 1024 -c 0 -i 84 -a 0 -x {4.0 0.3 20 ------- null}
+ -t 0.227913298301162 -s 4 -d 5 -p cbr -e 1024 -c 0 -i 84 -a 0 -x {4.0 0.3 20 ------- null}
- -t 0.2285472 -s 4 -d 5 -p cbr -e 1024 -c 0 -i 68 -a 0 -x {4.0 0.3 16 ------- null}
h -t 0.2285472 -s 4 -d 5 -p cbr -e 1024 -c 0 -i 68 -a 0 -x {4.0 0.3 -1 ------- null}
r -t 0.2285672 -s 5 -d 0 -p cbr -e 1024 -c 0 -i 65 -a 0 -x {4.0 0.3 15 ------- null}
h -t 0.22857684427627 -s 1 -d 5 -p cbr -e 1024 -c 0 -i 85 -a 0 -x {1.0 0.0 22 ------- null}
+ -t 0.22860244427627 -s 1 -d 5 -p cbr -e 1024 -c 0 -i 85 -a 0 -x {1.0 0.0 22 ------- null}
h -t 0.228898608307687 -s 2 -d 5 -p cbr -e 1024 -c 0 -i 86 -a 0 -x {2.0 0.1 20 ------- null}
+ -t 0.228924208307687 -s 2 -d 5 -p cbr -e 1024 -c 0 -i 86 -a 0 -x {2.0 0.1 20 ------- null}
h -t 0.229061550011109 -s 3 -d 5 -p cbr -e 1024 -c 0 -i 87 -a 0 -x {3.0 0.2 22 ------- null}
+ -t 0.229087150011109 -s 3 -d 5 -p cbr -e 1024 -c 0 -i 87 -a 0 -x {3.0 0.2 22 ------- null}
- -t 0.2293872 -s 4 -d 5 -p cbr -e 1024 -c 0 -i 72 -a 0 -x {4.0 0.3 17 ------- null}
h -t 0.2293872 -s 4 -d 5 -p cbr -e 1024 -c 0 -i 72 -a 0 -x {4.0 0.3 -1 ------- null}
r -t 0.2294072 -s 5 -d 0 -p cbr -e 1024 -c 0 -i 68 -a 0 -x {4.0 0.3 16 ------- null}
h -t 0.229897237727056 -s 4 -d 5 -p cbr -e 1024 -c 0 -i 88 -a 0 -x {4.0 0.3 21 ------- null}
+ -t 0.229922837727056 -s 4 -d 5 -p cbr -e 1024 -c 0 -i 88 -a 0 -x {4.0 0.3 21 ------- null}
h -t 0.229966794367553 -s 1 -d 5 -p cbr -e 1024 -c 0 -i 89 -a 0 -x {1.0 0.0 23 ------- null}
+ -t 0.229992394367553 -s 1 -d 5 -p cbr -e 1024 -c 0 -i 89 -a 0 -x {1.0 0.0 23 ------- null}
- -t 0.2302272 -s 4 -d 5 -p cbr -e 1024 -c 0 -i 76 -a 0 -x {4.0 0.3 18 ------- null}
h -t 0.2302272 -s 4 -d 5 -p cbr -e 1024 -c 0 -i 76 -a 0 -x {4.0 0.3 -1 ------- null}
r -t 0.2302472 -s 5 -d 0 -p cbr -e 1024 -c 0 -i 72 -a 0 -x {4.0 0.3 17 ------- null}
h -t 0.230740619746253 -s 3 -d 5 -p cbr -e 1024 -c 0 -i 90 -a 0 -x {3.0 0.2 23 ------- null}
+ -t 0.230766219746253 -s 3 -d 5 -p cbr -e 1024 -c 0 -i 90 -a 0 -x {3.0 0.2 23 ------- null}
h -t 0.230784105760818 -s 2 -d 5 -p cbr -e 1024 -c 0 -i 91 -a 0 -x {2.0 0.1 21 ------- null}
+ -t 0.230809705760818 -s 2 -d 5 -p cbr -e 1024 -c 0 -i 91 -a 0 -x {2.0 0.1 21 ------- null}
h -t 0.230938797116385 -s 4 -d 5 -p cbr -e 1024 -c 0 -i 92 -a 0 -x {4.0 0.3 22 ------- null}
+ -t 0.230964397116385 -s 4 -d 5 -p cbr -e 1024 -c 0 -i 92 -a 0 -x {4.0 0.3 22 ------- null}
- -t 0.2310672 -s 4 -d 5 -p cbr -e 1024 -c 0 -i 81 -a 0 -x {4.0 0.3 19 ------- null}
h -t 0.2310672 -s 4 -d 5 -p cbr -e 1024 -c 0 -i 81 -a 0 -x {4.0 0.3 -1 ------- null}
r -t 0.2310872 -s 5 -d 0 -p cbr -e 1024 -c 0 -i 76 -a 0 -x {4.0 0.3 18 ------- null}
h -t 0.231304160446165 -s 1 -d 5 -p cbr -e 1024 -c 0 -i 93 -a 0 -x {1.0 0.0 24 ------- null}
+ -t 0.231329760446165 -s 1 -d 5 -p cbr -e 1024 -c 0 -i 93 -a 0 -x {1.0 0.0 24 ------- null}
h -t 0.231747870648889 -s 2 -d 5 -p cbr -e 1024 -c 0 -i 94 -a 0 -x {2.0 0.1 22 ------- null}
+ -t 0.231773470648889 -s 2 -d 5 -p cbr -e 1024 -c 0 -i 94 -a 0 -x {2.0 0.1 22 ------- null}
- -t 0.2319072 -s 4 -d 5 -p cbr -e 1024 -c 0 -i 84 -a 0 -x {4.0 0.3 20 ------- null}
h -t 0.2319072 -s 4 -d 5 -p cbr -e 1024 -c 0 -i 84 -a 0 -x {4.0 0.3 -1 ------- null}
r -t 0.2319272 -s 5 -d 0 -p cbr -e 1024 -c 0 -i 81 -a 0 -x {4.0 0.3 19 ------- null}
h -t 0.232446867536887 -s 3 -d 5 -p cbr -e 1024 -c 0 -i 95 -a 0 -x {3.0 0.2 24 ------- null}
+ -t 0.232472467536887 -s 3 -d 5 -p cbr -e 1024 -c 0 -i 95 -a 0 -x {3.0 0.2 24 ------- null}
h -t 0.23254357926776 -s 4 -d 5 -p cbr -e 1024 -c 0 -i 96 -a 0 -x {4.0 0.3 23 ------- null}
+ -t 0.23256917926776 -s 4 -d 5 -p cbr -e 1024 -c 0 -i 96 -a 0 -x {4.0 0.3 23 ------- null}
h -t 0.232651524597567 -s 2 -d 5 -p cbr -e 1024 -c 0 -i 97 -a 0 -x {2.0 0.1 23 ------- null}
+ -t 0.232677124597567 -s 2 -d 5 -p cbr -e 1024 -c 0 -i 97 -a 0 -x {2.0 0.1 23 ------- null}
- -t 0.2327472 -s 4 -d 5 -p cbr -e 1024 -c 0 -i 88 -a 0 -x {4.0 0.3 21 ------- null}
h -t 0.2327472 -s 4 -d 5 -p cbr -e 1024 -c 0 -i 88 -a 0 -x {4.0 0.3 -1 ------- null}
r -t 0.2327672 -s 5 -d 0 -p cbr -e 1024 -c 0 -i 84 -a 0 -x {4.0 0.3 20 ------- null}
h -t 0.232884201298301 -s 1 -d 5 -p cbr -e 1024 -c 0 -i 98 -a 0 -x {1.0 0.0 25 ------- null}
+ -t 0.232909801298301 -s 1 -d 5 -p cbr -e 1024 -c 0 -i 98 -a 0 -x {1.0 0.0 25 ------- null}
h -t 0.233491004004207 -s 3 -d 5 -p cbr -e 1024 -c 0 -i 99 -a 0 -x {3.0 0.2 25 ------- null}
+ -t 0.233516604004207 -s 3 -d 5 -p cbr -e 1024 -c 0 -i 99 -a 0 -x {3.0 0.2 25 ------- null}
- -t 0.2335872 -s 4 -d 5 -p cbr -e 1024 -c 0 -i 92 -a 0 -x {4.0 0.3 22 ------- null}
h -t 0.2335872 -s 4 -d 5 -p cbr -e 1024 -c 0 -i 92 -a 0 -x {4.0 0.3 -1 ------- null}
r -t 0.2336072 -s 5 -d 0 -p cbr -e 1024 -c 0 -i 88 -a 0 -x {4.0 0.3 21 ------- null}
h -t 0.233743212075096 -s 4 -d 5 -p cbr -e 1024 -c 0 -i 100 -a 0 -x {4.0 0.3 24 ------- null}
+ -t 0.233768812075096 -s 4 -d 5 -p cbr -e 1024 -c 0 -i 100 -a 0 -x {4.0 0.3 24 ------- null}
h -t 0.234169404136815 -s 2 -d 5 -p cbr -e 1024 -c 0 -i 101 -a 0 -x {2.0 0.1 24 ------- null}
+ -t 0.234195004136815 -s 2 -d 5 -p cbr -e 1024 -c 0 -i 101 -a 0 -x {2.0 0.1 24 ------- null}
- -t 0.2344272 -s 4 -d 5 -p cbr -e 1024 -c 0 -i 96 -a 0 -x {4.0 0.3 23 ------- null}
h -t 0.2344272 -s 4 -d 5 -p cbr -e 1024 -c 0 -i 96 -a 0 -x {4.0 0.3 -1 ------- null}
r -t 0.2344472 -s 5 -d 0 -p cbr -e 1024 -c 0 -i 92 -a 0 -x {4.0 0.3 22 ------- null}
h -t 0.2344617643331 -s 1 -d 5 -p cbr -e 1024 -c 0 -i 102 -a 0 -x {1.0 0.0 26 ------- null}
+ -t 0.2344873643331 -s 1 -d 5 -p cbr -e 1024 -c 0 -i 102 -a 0 -x {1.0 0.0 26 ------- null}
h -t 0.234808757131862 -s 4 -d 5 -p cbr -e 1024 -c 0 -i 103 -a 0 -x {4.0 0.3 25 ------- null}
+ -t 0.234834357131862 -s 4 -d 5 -p cbr -e 1024 -c 0 -i 103 -a 0 -x {4.0 0.3 25 ------- null}