h 0.2 1 5 cbr 1024 ------- 0 1.0 0.0 0 0
h 0.2 2 5 cbr 1024 ------- 0 2.0 0.1 0 1
h 0.2 3 5 cbr 1024 ------- 0 3.0 0.2 0 2
h 0.2 4 5 cbr 1024 ------- 0 4.0 0.3 0 3
+ 0.200026 1 5 cbr 1024 ------- 0 1.0 0.0 0 0
- 0.200026 1 5 cbr 1024 ------- 0 1.0 0.0 0 0
+ 0.200026 2 5 cbr 1024 ------- 0 2.0 0.1 0 1
- 0.200026 2 5 cbr 1024 ------- 0 2.0 0.1 0 1
+ 0.200026 3 5 cbr 1024 ------- 0 3.0 0.2 0 2
- 0.200026 3 5 cbr 1024 ------- 0 3.0 0.2 0 2
+ 0.200026 4 5 cbr 1024 ------- 0 4.0 0.3 0 3
- 0.200026 4 5 cbr 1024 ------- 0 4.0 0.3 0 3
h 0.200683 1 5 cbr 1024 ------- 0 1.0 0.0 1 4
h 0.200702 3 5 cbr 1024 ------- 0 3.0 0.2 1 5
+ 0.200709 1 5 cbr 1024 ------- 0 1.0 0.0 1 4
+ 0.200728 3 5 cbr 1024 ------- 0 3.0 0.2 1 5
h 0.200803 4 5 cbr 1024 ------- 0 4.0 0.3 1 6
+ 0.200829 4 5 cbr 1024 ------- 0 4.0 0.3 1 6
- 0.200882 3 5 cbr 1024 ------- 0 3.0 0.2 1 5
r 0.200902 5 0 cbr 1024 ------- 0 3.0 0.2 0 2
h 0.201442 2 5 cbr 1024 ------- 0 2.0 0.1 1 7
+ 0.201467 2 5 cbr 1024 ------- 0 2.0 0.1 1 7
h 0.201686 1 5 cbr 1024 ------- 0 1.0 0.0 2 8
+ 0.201712 1 5 cbr 1024 ------- 0 1.0 0.0 2 8
- 0.201756 1 5 cbr 1024 ------- 0 1.0 0.0 1 4
r 0.201776 5 0 cbr 1024 ------- 0 1.0 0.0 0 0
h 0.201908 4 5 cbr 1024 ------- 0 4.0 0.3 2 9
+ 0.201933 4 5 cbr 1024 ------- 0 4.0 0.3 2 9
h 0.202257 3 5 cbr 1024 ------- 0 3.0 0.2 2 10
+ 0.202283 3 5 cbr 1024 ------- 0 3.0 0.2 2 10
h 0.202607 1 5 cbr 1024 ------- 0 1.0 0.0 3 11
+ 0.202633 1 5 cbr 1024 ------- 0 1.0 0.0 3 11
h 0.202703 2 5 cbr 1024 ------- 0 2.0 0.1 2 12
+ 0.202728 2 5 cbr 1024 ------- 0 2.0 0.1 2 12
- 0.203005 1 5 cbr 1024 ------- 0 1.0 0.0 2 8
r 0.203025 5 0 cbr 1024 ------- 0 1.0 0.0 1 4
h 0.203269 3 5 cbr 1024 ------- 0 3.0 0.2 3 13
+ 0.203295 3 5 cbr 1024 ------- 0 3.0 0.2 3 13
h 0.203767 4 5 cbr 1024 ------- 0 4.0 0.3 3 14
+ 0.203793 4 5 cbr 1024 ------- 0 4.0 0.3 3 14
- 0.203866 1 5 cbr 1024 ------- 0 1.0 0.0 3 11
r 0.203886 5 0 cbr 1024 ------- 0 1.0 0.0 2 8
h 0.20431 2 5 cbr 1024 ------- 0 2.0 0.1 3 15
+ 0.204336 2 5 cbr 1024 ------- 0 2.0 0.1 3 15
h 0.204452 1 5 cbr 1024 ------- 0 1.0 0.0 4 16
+ 0.204478 1 5 cbr 1024 ------- 0 1.0 0.0 4 16
h 0.204504 3 5 cbr 1024 ------- 0 3.0 0.2 4 17
+ 0.204529 3 5 cbr 1024 ------- 0 3.0 0.2 4 17
h 0.204706 4 5 cbr 1024 ------- 0 4.0 0.3 4 18
+ 0.204731 4 5 cbr 1024 ------- 0 4.0 0.3 4 18
- 0.204834 2 5 cbr 1024 ------- 0 2.0 0.1 1 7
r 0.204854 5 0 cbr 1024 ------- 0 2.0 0.1 0 1
h 0.205008 2 5 cbr 1024 ------- 0 2.0 0.1 4 19
+ 0.205033 2 5 cbr 1024 ------- 0 2.0 0.1 4 19
h 0.205557 4 5 cbr 1024 ------- 0 4.0 0.3 5 20
+ 0.205582 4 5 cbr 1024 ------- 0 4.0 0.3 5 20
h 0.205645 3 5 cbr 1024 ------- 0 3.0 0.2 5 21
+ 0.20567 3 5 cbr 1024 ------- 0 3.0 0.2 5 21
- 0.205746 2 5 cbr 1024 ------- 0 2.0 0.1 2 12
r 0.205766 5 0 cbr 1024 ------- 0 2.0 0.1 1 7
h 0.205947 1 5 cbr 1024 ------- 0 1.0 0.0 5 22
+ 0.205973 1 5 cbr 1024 ------- 0 1.0 0.0 5 22
h 0.206434 2 5 cbr 1024 ------- 0 2.0 0.1 5 23
+ 0.20646 2 5 cbr 1024 ------- 0 2.0 0.1 5 23
- 0.206658 2 5 cbr 1024 ------- 0 2.0 0.1 3 15
h 0.206668 1 5 cbr 1024 ------- 0 1.0 0.0 6 24
r 0.206678 5 0 cbr 1024 ------- 0 2.0 0.1 2 12
h 0.206685 3 5 cbr 1024 ------- 0 3.0 0.2 6 25
+ 0.206693 1 5 cbr 1024 ------- 0 1.0 0.0 6 24
+ 0.20671 3 5 cbr 1024 ------- 0 3.0 0.2 6 25
h 0.207436 4 5 cbr 1024 ------- 0 4.0 0.3 6 26
+ 0.207462 4 5 cbr 1024 ------- 0 4.0 0.3 6 26
- 0.207532 2 5 cbr 1024 ------- 0 2.0 0.1 4 19
r 0.207552 5 0 cbr 1024 ------- 0 2.0 0.1 3 15
h 0.207564 2 5 cbr 1024 ------- 0 2.0 0.1 6 27
+ 0.207589 2 5 cbr 1024 ------- 0 2.0 0.1 6 27
h 0.208316 3 5 cbr 1024 ------- 0 3.0 0.2 7 28
+ 0.208342 3 5 cbr 1024 ------- 0 3.0 0.2 7 28
h 0.208363 4 5 cbr 1024 ------- 0 4.0 0.3 7 29
+ 0.208388 4 5 cbr 1024 ------- 0 4.0 0.3 7 29
- 0.208444 2 5 cbr 1024 ------- 0 2.0 0.1 5 23
r 0.208464 5 0 cbr 1024 ------- 0 2.0 0.1 4 19
h 0.208643 1 5 cbr 1024 ------- 0 1.0 0.0 7 30
+ 0.208669 1 5 cbr 1024 ------- 0 1.0 0.0 7 30
h 0.208918 2 5 cbr 1024 ------- 0 2.0 0.1 7 31
+ 0.208943 2 5 cbr 1024 ------- 0 2.0 0.1 7 31
h 0.209067 3 5 cbr 1024 ------- 0 3.0 0.2 8 32
+ 0.209093 3 5 cbr 1024 ------- 0 3.0 0.2 8 32
- 0.209284 2 5 cbr 1024 ------- 0 2.0 0.1 6 27
r 0.209304 5 0 cbr 1024 ------- 0 2.0 0.1 5 23
h 0.210053 1 5 cbr 1024 ------- 0 1.0 0.0 8 33
+ 0.210079 1 5 cbr 1024 ------- 0 1.0 0.0 8 33
- 0.210145 2 5 cbr 1024 ------- 0 2.0 0.1 7 31
r 0.210165 5 0 cbr 1024 ------- 0 2.0 0.1 6 27
h 0.210227 4 5 cbr 1024 ------- 0 4.0 0.3 8 34
+ 0.210252 4 5 cbr 1024 ------- 0 4.0 0.3 8 34
h 0.210325 3 5 cbr 1024 ------- 0 3.0 0.2 9 35
+ 0.210351 3 5 cbr 1024 ------- 0 3.0 0.2 9 35
h 0.210604 2 5 cbr 1024 ------- 0 2.0 0.1 8 36
+ 0.21063 2 5 cbr 1024 ------- 0 2.0 0.1 8 36
- 0.211057 2 5 cbr 1024 ------- 0 2.0 0.1 8 36
r 0.211077 5 0 cbr 1024 ------- 0 2.0 0.1 7 31
h 0.21171 4 5 cbr 1024 ------- 0 4.0 0.3 9 37
+ 0.211735 4 5 cbr 1024 ------- 0 4.0 0.3 9 37
h 0.211969 1 5 cbr 1024 ------- 0 1.0 0.0 9 38
r 0.211989 5 0 cbr 1024 ------- 0 2.0 0.1 8 36
+ 0.211994 1 5 cbr 1024 ------- 0 1.0 0.0 9 38
h 0.212012 3 5 cbr 1024 ------- 0 3.0 0.2 10 39
+ 0.212038 3 5 cbr 1024 ------- 0 3.0 0.2 10 39
h 0.212382 2 5 cbr 1024 ------- 0 2.0 0.1 9 40
+ 0.212407 2 5 cbr 1024 ------- 0 2.0 0.1 9 40
- 0.212407 2 5 cbr 1024 ------- 0 2.0 0.1 9 40
r 0.213267 5 0 cbr 1024 ------- 0 2.0 0.1 9 40
h 0.213269 2 5 cbr 1024 ------- 0 2.0 0.1 10 41
+ 0.213295 2 5 cbr 1024 ------- 0 2.0 0.1 10 41
- 0.213295 2 5 cbr 1024 ------- 0 2.0 0.1 10 41
h 0.213506 4 5 cbr 1024 ------- 0 4.0 0.3 10 42
+ 0.213531 4 5 cbr 1024 ------- 0 4.0 0.3 10 42
h 0.213601 3 5 cbr 1024 ------- 0 3.0 0.2 11 43
+ 0.213627 3 5 cbr 1024 ------- 0 3.0 0.2 11 43
h 0.213721 1 5 cbr 1024 ------- 0 1.0 0.0 10 44
+ 0.213747 1 5 cbr 1024 ------- 0 1.0 0.0 10 44
r 0.214155 5 0 cbr 1024 ------- 0 2.0 0.1 10 41
h 0.214404 1 5 cbr 1024 ------- 0 1.0 0.0 11 45
+ 0.21443 1 5 cbr 1024 ------- 0 1.0 0.0 11 45
h 0.214507 2 5 cbr 1024 ------- 0 2.0 0.1 11 46
+ 0.214532 2 5 cbr 1024 ------- 0 2.0 0.1 11 46
- 0.214532 2 5 cbr 1024 ------- 0 2.0 0.1 11 46
h 0.214794 3 5 cbr 1024 ------- 0 3.0 0.2 12 47
+ 0.214819 3 5 cbr 1024 ------- 0 3.0 0.2 12 47
h 0.214934 4 5 cbr 1024 ------- 0 4.0 0.3 11 48
+ 0.21496 4 5 cbr 1024 ------- 0 4.0 0.3 11 48
h 0.215201 1 5 cbr 1024 ------- 0 1.0 0.0 12 49
+ 0.215226 1 5 cbr 1024 ------- 0 1.0 0.0 12 49
- 0.215368 4 5 cbr 1024 ------- 0 4.0 0.3 1 6
r 0.215388 5 0 cbr 1024 ------- 0 4.0 0.3 0 3
h 0.215643 2 5 cbr 1024 ------- 0 2.0 0.1 12 50
+ 0.215669 2 5 cbr 1024 ------- 0 2.0 0.1 12 50
h 0.215928 1 5 cbr 1024 ------- 0 1.0 0.0 13 51
+ 0.215954 1 5 cbr 1024 ------- 0 1.0 0.0 13 51
- 0.216344 4 5 cbr 1024 ------- 0 4.0 0.3 2 9
r 0.216364 5 0 cbr 1024 ------- 0 4.0 0.3 1 6
h 0.216426 3 5 cbr 1024 ------- 0 3.0 0.2 13 52
+ 0.216452 3 5 cbr 1024 ------- 0 3.0 0.2 13 52
h 0.216862 4 5 cbr 1024 ------- 0 4.0 0.3 12 53
+ 0.216887 4 5 cbr 1024 ------- 0 4.0 0.3 12 53
- 0.217205 4 5 cbr 1024 ------- 0 4.0 0.3 3 14
r 0.217225 5 0 cbr 1024 ------- 0 4.0 0.3 2 9
h 0.217527 2 5 cbr 1024 ------- 0 2.0 0.1 13 54
+ 0.217553 2 5 cbr 1024 ------- 0 2.0 0.1 13 54
h 0.217711 1 5 cbr 1024 ------- 0 1.0 0.0 14 55
+ 0.217737 1 5 cbr 1024 ------- 0 1.0 0.0 14 55
- 0.218066 4 5 cbr 1024 ------- 0 4.0 0.3 4 18
r 0.218086 5 0 cbr 1024 ------- 0 4.0 0.3 3 14
h 0.21814 3 5 cbr 1024 ------- 0 3.0 0.2 14 56
+ 0.218166 3 5 cbr 1024 ------- 0 3.0 0.2 14 56
h 0.218385 4 5 cbr 1024 ------- 0 4.0 0.3 13 57
+ 0.21841 4 5 cbr 1024 ------- 0 4.0 0.3 13 57
h 0.218677 1 5 cbr 1024 ------- 0 1.0 0.0 15 58
+ 0.218703 1 5 cbr 1024 ------- 0 1.0 0.0 15 58
h 0.218826 2 5 cbr 1024 ------- 0 2.0 0.1 14 59
+ 0.218851 2 5 cbr 1024 ------- 0 2.0 0.1 14 59
- 0.218978 4 5 cbr 1024 ------- 0 4.0 0.3 5 20
r 0.218998 5 0 cbr 1024 ------- 0 4.0 0.3 4 18
h 0.21942 3 5 cbr 1024 ------- 0 3.0 0.2 15 60
+ 0.219445 3 5 cbr 1024 ------- 0 3.0 0.2 15 60
h 0.21952 4 5 cbr 1024 ------- 0 4.0 0.3 14 61
h 0.219523 1 5 cbr 1024 ------- 0 1.0 0.0 16 62
+ 0.219545 4 5 cbr 1024 ------- 0 4.0 0.3 14 61
+ 0.219548 1 5 cbr 1024 ------- 0 1.0 0.0 16 62
- 0.219838 4 5 cbr 1024 ------- 0 4.0 0.3 6 26
r 0.219858 5 0 cbr 1024 ------- 0 4.0 0.3 5 20
- 0.220678 4 5 cbr 1024 ------- 0 4.0 0.3 7 29
h 0.22068 3 5 cbr 1024 ------- 0 3.0 0.2 16 63
r 0.220698 5 0 cbr 1024 ------- 0 4.0 0.3 6 26
+ 0.220705 3 5 cbr 1024 ------- 0 3.0 0.2 16 63
h 0.220737 2 5 cbr 1024 ------- 0 2.0 0.1 15 64
h 0.220759 4 5 cbr 1024 ------- 0 4.0 0.3 15 65
+ 0.220762 2 5 cbr 1024 ------- 0 2.0 0.1 15 64
+ 0.220784 4 5 cbr 1024 ------- 0 4.0 0.3 15 65
h 0.22121 1 5 cbr 1024 ------- 0 1.0 0.0 17 66
+ 0.221235 1 5 cbr 1024 ------- 0 1.0 0.0 17 66
- 0.221518 4 5 cbr 1024 ------- 0 4.0 0.3 8 34
r 0.221538 5 0 cbr 1024 ------- 0 4.0 0.3 7 29
h 0.222024 3 5 cbr 1024 ------- 0 3.0 0.2 17 67
+ 0.22205 3 5 cbr 1024 ------- 0 3.0 0.2 17 67
h 0.222292 4 5 cbr 1024 ------- 0 4.0 0.3 16 68
+ 0.222317 4 5 cbr 1024 ------- 0 4.0 0.3 16 68
- 0.222379 4 5 cbr 1024 ------- 0 4.0 0.3 9 37
r 0.222399 5 0 cbr 1024 ------- 0 4.0 0.3 8 34
h 0.222644 2 5 cbr 1024 ------- 0 2.0 0.1 16 69
+ 0.222669 2 5 cbr 1024 ------- 0 2.0 0.1 16 69
h 0.222795 3 5 cbr 1024 ------- 0 3.0 0.2 18 70
+ 0.222821 3 5 cbr 1024 ------- 0 3.0 0.2 18 70
h 0.223054 1 5 cbr 1024 ------- 0 1.0 0.0 18 71
+ 0.22308 1 5 cbr 1024 ------- 0 1.0 0.0 18 71
h 0.223216 4 5 cbr 1024 ------- 0 4.0 0.3 17 72
+ 0.223241 4 5 cbr 1024 ------- 0 4.0 0.3 17 72
- 0.223291 4 5 cbr 1024 ------- 0 4.0 0.3 10 42
r 0.223311 5 0 cbr 1024 ------- 0 4.0 0.3 9 37
h 0.224046 1 5 cbr 1024 ------- 0 1.0 0.0 19 73
+ 0.224072 1 5 cbr 1024 ------- 0 1.0 0.0 19 73
h 0.224116 2 5 cbr 1024 ------- 0 2.0 0.1 17 74
+ 0.224142 2 5 cbr 1024 ------- 0 2.0 0.1 17 74
- 0.224203 4 5 cbr 1024 ------- 0 4.0 0.3 11 48
r 0.224223 5 0 cbr 1024 ------- 0 4.0 0.3 10 42
h 0.224442 3 5 cbr 1024 ------- 0 3.0 0.2 19 75
+ 0.224468 3 5 cbr 1024 ------- 0 3.0 0.2 19 75
h 0.225032 4 5 cbr 1024 ------- 0 4.0 0.3 18 76
+ 0.225057 4 5 cbr 1024 ------- 0 4.0 0.3 18 76
- 0.225115 4 5 cbr 1024 ------- 0 4.0 0.3 12 53
r 0.225135 5 0 cbr 1024 ------- 0 4.0 0.3 11 48
h 0.225669 2 5 cbr 1024 ------- 0 2.0 0.1 18 77
+ 0.225694 2 5 cbr 1024 ------- 0 2.0 0.1 18 77
h 0.225728 3 5 cbr 1024 ------- 0 3.0 0.2 20 78
+ 0.225753 3 5 cbr 1024 ------- 0 3.0 0.2 20 78
h 0.225813 1 5 cbr 1024 ------- 0 1.0 0.0 20 79
+ 0.225839 1 5 cbr 1024 ------- 0 1.0 0.0 20 79
- 0.225955 4 5 cbr 1024 ------- 0 4.0 0.3 13 57
r 0.225975 5 0 cbr 1024 ------- 0 4.0 0.3 12 53
- 0.226795 4 5 cbr 1024 ------- 0 4.0 0.3 14 61
r 0.226815 5 0 cbr 1024 ------- 0 4.0 0.3 13 57
h 0.226979 2 5 cbr 1024 ------- 0 2.0 0.1 19 80
h 0.226998 4 5 cbr 1024 ------- 0 4.0 0.3 19 81
+ 0.227005 2 5 cbr 1024 ------- 0 2.0 0.1 19 80
+ 0.227023 4 5 cbr 1024 ------- 0 4.0 0.3 19 81
- 0.227635 4 5 cbr 1024 ------- 0 4.0 0.3 15 65
h 0.227641 3 5 cbr 1024 ------- 0 3.0 0.2 21 82
r 0.227655 5 0 cbr 1024 ------- 0 4.0 0.3 14 61
+ 0.227667 3 5 cbr 1024 ------- 0 3.0 0.2 21 82
h 0.227803 1 5 cbr 1024 ------- 0 1.0 0.0 21 83
+ 0.227829 1 5 cbr 1024 ------- 0 1.0 0.0 21 83
h 0.227888 4 5 cbr 1024 ------- 0 4.0 0.3 20 84
+ 0.227913 4 5 cbr 1024 ------- 0 4.0 0.3 20 84
- 0.228547 4 5 cbr 1024 ------- 0 4.0 0.3 16 68
r 0.228567 5 0 cbr 1024 ------- 0 4.0 0.3 15 65
h 0.228577 1 5 cbr 1024 ------- 0 1.0 0.0 22 85
+ 0.228602 1 5 cbr 1024 ------- 0 1.0 0.0 22 85
h 0.228899 2 5 cbr 1024 ------- 0 2.0 0.1 20 86
+ 0.228924 2 5 cbr 1024 ------- 0 2.0 0.1 20 86
h 0.229062 3 5 cbr 1024 ------- 0 3.0 0.2 22 87
+ 0.229087 3 5 cbr 1024 ------- 0 3.0 0.2 22 87
- 0.229387 4 5 cbr 1024 ------- 0 4.0 0.3 17 72
r 0.229407 5 0 cbr 1024 ------- 0 4.0 0.3 16 68
h 0.229897 4 5 cbr 1024 ------- 0 4.0 0.3 21 88
+ 0.229923 4 5 cbr 1024 ------- 0 4.0 0.3 21 88
h 0.229967 1 5 cbr 1024 ------- 0 1.0 0.0 23 89
+ 0.229992 1 5 cbr 1024 ------- 0 1.0 0.0 23 89
- 0.230227 4 5 cbr 1024 ------- 0 4.0 0.3 18 76
r 0.230247 5 0 cbr 1024 ------- 0 4.0 0.3 17 72
h 0.230741 3 5 cbr 1024 ------- 0 3.0 0.2 23 90
+ 0.230766 3 5 cbr 1024 ------- 0 3.0 0.2 23 90
h 0.230784 2 5 cbr 1024 ------- 0 2.0 0.1 21 91
+ 0.23081 2 5 cbr 1024 ------- 0 2.0 0.1 21 91
h 0.230939 4 5 cbr 1024 ------- 0 4.0 0.3 22 92
+ 0.230964 4 5 cbr 1024 ------- 0 4.0 0.3 22 92
- 0.231067 4 5 cbr 1024 ------- 0 4.0 0.3 19 81
r 0.231087 5 0 cbr 1024 ------- 0 4.0 0.3 18 76
h 0.231304 1 5 cbr 1024 ------- 0 1.0 0.0 24 93
+ 0.23133 1 5 cbr 1024 ------- 0 1.0 0.0 24 93
h 0.231748 2 5 cbr 1024 ------- 0 2.0 0.1 22 94
+ 0.231773 2 5 cbr 1024 ------- 0 2.0 0.1 22 94
- 0.231907 4 5 cbr 1024 ------- 0 4.0 0.3 20 84
r 0.231927 5 0 cbr 1024 ------- 0 4.0 0.3 19 81
h 0.232447 3 5 cbr 1024 ------- 0 3.0 0.2 24 95
+ 0.232472 3 5 cbr 1024 ------- 0 3.0 0.2 24 95
h 0.232544 4 5 cbr 1024 ------- 0 4.0 0.3 23 96
+ 0.232569 4 5 cbr 1024 ------- 0 4.0 0.3 23 96
h 0.232652 2 5 cbr 1024 ------- 0 2.0 0.1 23 97
+ 0.232677 2 5 cbr 1024 ------- 0 2.0 0.1 23 97
- 0.232747 4 5 cbr 1024 ------- 0 4.0 0.3 21 88
r 0.232767 5 0 cbr 1024 ------- 0 4.0 0.3 20 84
h 0.232884 1 5 cbr 1024 ------- 0 1.0 0.0 25 98
+ 0.23291 1 5 cbr 1024 ------- 0 1.0 0.0 25 98
h 0.233491 3 5 cbr 1024 ------- 0 3.0 0.2 25 99
+ 0.233517 3 5 cbr 1024 ------- 0 3.0 0.2 25 99
- 0.233587 4 5 cbr 1024 ------- 0 4.0 0.3 22 92
r 0.233607 5 0 cbr 1024 ------- 0 4.0 0.3 21 88
h 0.233743 4 5 cbr 1024 ------- 0 4.0 0.3 24 100
+ 0.233769 4 5 cbr 1024 ------- 0 4.0 0.3 24 100
h 0.234169 2 5 cbr 1024 ------- 0 2.0 0.1 24 101
+ 0.234195 2 5 cbr 1024 ------- 0 2.0 0.1 24 101
- 0.234427 4 5 cbr 1024 ------- 0 4.0 0.3 23 96
r 0.234447 5 0 cbr 1024 ------- 0 4.0 0.3 22 92
h 0.234462 1 5 cbr 1024 ------- 0 1.0 0.0 26 102
+ 0.234487 1 5 cbr 1024 ------- 0 1.0 0.0 26 102
h 0.234809 4 5 cbr 1024 ------- 0 4.0 0.3 25 103
+ 0.234834 4 5 cbr 1024 ------- 0 4.0 0.3 25 103
h 0.235079 2 5 cbr 1024 ------- 0 2.0 0.1 25 104
+ 0.235105 2 5 cbr 1024 ------- 0 2.0 0.1 25 104
h 0.23525 1 5 cbr 1024 ------- 0 1.0 0.0 27 105
+ 0.235276 1 5 cbr 1024 ------- 0 1.0 0.0 27 105
- 0.235339 4 5 cbr 1024 ------- 0 4.0 0.3 24 100
h 0.23534 3 5 cbr 1024 ------- 0 3.0 0.2 26 106
r 0.235359 5 0 cbr 1024 ------- 0 4.0 0.3 23 96
+ 0.235366 3 5 cbr 1024 ------- 0 3.0 0.2 26 106
h 0.235654 4 5 cbr 1024 ------- 0 4.0 0.3 26 107
+ 0.23568 4 5 cbr 1024 ------- 0 4.0 0.3 26 107
h 0.235836 2 5 cbr 1024 ------- 0 2.0 0.1 26 108
+ 0.235861 2 5 cbr 1024 ------- 0 2.0 0.1 26 108
- 0.236179 4 5 cbr 1024 ------- 0 4.0 0.3 25 103
r 0.236199 5 0 cbr 1024 ------- 0 4.0 0.3 24 100
h 0.236316 3 5 cbr 1024 ------- 0 3.0 0.2 27 109
+ 0.236341 3 5 cbr 1024 ------- 0 3.0 0.2 27 109
h 0.236413 4 5 cbr 1024 ------- 0 4.0 0.3 27 110
h 0.236423 1 5 cbr 1024 ------- 0 1.0 0.0 28 111
+ 0.236438 4 5 cbr 1024 ------- 0 4.0 0.3 27 110
+ 0.236449 1 5 cbr 1024 ------- 0 1.0 0.0 28 111
- 0.237019 4 5 cbr 1024 ------- 0 4.0 0.3 26 107
r 0.237039 5 0 cbr 1024 ------- 0 4.0 0.3 25 103
h 0.237693 1 5 cbr 1024 ------- 0 1.0 0.0 29 112
+ 0.237719 1 5 cbr 1024 ------- 0 1.0 0.0 29 112
h 0.237821 2 5 cbr 1024 ------- 0 2.0 0.1 27 113
+ 0.237846 2 5 cbr 1024 ------- 0 2.0 0.1 27 113
- 0.237859 4 5 cbr 1024 ------- 0 4.0 0.3 27 110
r 0.237879 5 0 cbr 1024 ------- 0 4.0 0.3 26 107
h 0.238063 4 5 cbr 1024 ------- 0 4.0 0.3 28 114
+ 0.238088 4 5 cbr 1024 ------- 0 4.0 0.3 28 114
h 0.238121 3 5 cbr 1024 ------- 0 3.0 0.2 28 115
+ 0.238147 3 5 cbr 1024 ------- 0 3.0 0.2 28 115
- 0.238699 4 5 cbr 1024 ------- 0 4.0 0.3 28 114
r 0.238719 5 0 cbr 1024 ------- 0 4.0 0.3 27 110
h 0.238981 3 5 cbr 1024 ------- 0 3.0 0.2 29 116
+ 0.239007 3 5 cbr 1024 ------- 0 3.0 0.2 29 116
h 0.23904 2 5 cbr 1024 ------- 0 2.0 0.1 28 117
+ 0.239065 2 5 cbr 1024 ------- 0 2.0 0.1 28 117
h 0.239487 4 5 cbr 1024 ------- 0 4.0 0.3 29 118
h 0.239509 1 5 cbr 1024 ------- 0 1.0 0.0 30 119
+ 0.239513 4 5 cbr 1024 ------- 0 4.0 0.3 29 118
+ 0.239535 1 5 cbr 1024 ------- 0 1.0 0.0 30 119
- 0.23956 4 5 cbr 1024 ------- 0 4.0 0.3 29 118
r 0.23958 5 0 cbr 1024 ------- 0 4.0 0.3 28 114
h 0.240197 1 5 cbr 1024 ------- 0 1.0 0.0 31 120
+ 0.240222 1 5 cbr 1024 ------- 0 1.0 0.0 31 120
r 0.24042 5 0 cbr 1024 ------- 0 4.0 0.3 29 118
h 0.240793 3 5 cbr 1024 ------- 0 3.0 0.2 30 121
+ 0.240818 3 5 cbr 1024 ------- 0 3.0 0.2 30 121
h 0.240823 2 5 cbr 1024 ------- 0 2.0 0.1 29 122
+ 0.240848 2 5 cbr 1024 ------- 0 2.0 0.1 29 122
h 0.24134 4 5 cbr 1024 ------- 0 4.0 0.3 30 123
+ 0.241366 4 5 cbr 1024 ------- 0 4.0 0.3 30 123
- 0.241366 4 5 cbr 1024 ------- 0 4.0 0.3 30 123
h 0.241579 3 5 cbr 1024 ------- 0 3.0 0.2 31 124
+ 0.241605 3 5 cbr 1024 ------- 0 3.0 0.2 31 124
h 0.241794 2 5 cbr 1024 ------- 0 2.0 0.1 30 125
+ 0.241819 2 5 cbr 1024 ------- 0 2.0 0.1 30 125
h 0.241963 1 5 cbr 1024 ------- 0 1.0 0.0 32 126
+ 0.241989 1 5 cbr 1024 ------- 0 1.0 0.0 32 126
r 0.242226 5 0 cbr 1024 ------- 0 4.0 0.3 30 123
h 0.242694 2 5 cbr 1024 ------- 0 2.0 0.1 31 127
+ 0.242719 2 5 cbr 1024 ------- 0 2.0 0.1 31 127
h 0.242913 3 5 cbr 1024 ------- 0 3.0 0.2 32 128
+ 0.242939 3 5 cbr 1024 ------- 0 3.0 0.2 32 128
h 0.243014 1 5 cbr 1024 ------- 0 1.0 0.0 33 129
+ 0.24304 1 5 cbr 1024 ------- 0 1.0 0.0 33 129
h 0.243168 4 5 cbr 1024 ------- 0 4.0 0.3 31 130
+ 0.243193 4 5 cbr 1024 ------- 0 4.0 0.3 31 130
- 0.243193 4 5 cbr 1024 ------- 0 4.0 0.3 31 130
h 0.243404 2 5 cbr 1024 ------- 0 2.0 0.1 32 131
+ 0.243429 2 5 cbr 1024 ------- 0 2.0 0.1 32 131
r 0.244053 5 0 cbr 1024 ------- 0 4.0 0.3 31 130
h 0.244286 1 5 cbr 1024 ------- 0 1.0 0.0 34 132
+ 0.244312 1 5 cbr 1024 ------- 0 1.0 0.0 34 132
h 0.244507 2 5 cbr 1024 ------- 0 2.0 0.1 33 133
h 0.244516 4 5 cbr 1024 ------- 0 4.0 0.3 32 134
+ 0.244532 2 5 cbr 1024 ------- 0 2.0 0.1 33 133
+ 0.244541 4 5 cbr 1024 ------- 0 4.0 0.3 32 134
- 0.244541 4 5 cbr 1024 ------- 0 4.0 0.3 32 134
h 0.244557 3 5 cbr 1024 ------- 0 3.0 0.2 33 135
+ 0.244583 3 5 cbr 1024 ------- 0 3.0 0.2 33 135
h 0.24498 1 5 cbr 1024 ------- 0 1.0 0.0 35 136
+ 0.245005 1 5 cbr 1024 ------- 0 1.0 0.0 35 136
r 0.245401 5 0 cbr 1024 ------- 0 4.0 0.3 32 134
h 0.245559 4 5 cbr 1024 ------- 0 4.0 0.3 33 137
+ 0.245584 4 5 cbr 1024 ------- 0 4.0 0.3 33 137
- 0.245584 4 5 cbr 1024 ------- 0 4.0 0.3 33 137
h 0.245881 3 5 cbr 1024 ------- 0 3.0 0.2 34 138
+ 0.245906 3 5 cbr 1024 ------- 0 3.0 0.2 34 138
h 0.246131 2 5 cbr 1024 ------- 0 2.0 0.1 34 139
+ 0.246157 2 5 cbr 1024 ------- 0 2.0 0.1 34 139
r 0.246444 5 0 cbr 1024 ------- 0 4.0 0.3 33 137
h 0.246724 4 5 cbr 1024 ------- 0 4.0 0.3 34 140
+ 0.246749 4 5 cbr 1024 ------- 0 4.0 0.3 34 140
- 0.246749 4 5 cbr 1024 ------- 0 4.0 0.3 34 140
h 0.246868 2 5 cbr 1024 ------- 0 2.0 0.1 35 141
h 0.246889 1 5 cbr 1024 ------- 0 1.0 0.0 36 142
+ 0.246894 2 5 cbr 1024 ------- 0 2.0 0.1 35 141
+ 0.246915 1 5 cbr 1024 ------- 0 1.0 0.0 36 142
h 0.247215 3 5 cbr 1024 ------- 0 3.0 0.2 35 143
+ 0.247241 3 5 cbr 1024 ------- 0 3.0 0.2 35 143
r 0.247609 5 0 cbr 1024 ------- 0 4.0 0.3 34 140
h 0.248142 2 5 cbr 1024 ------- 0 2.0 0.1 36 144
+ 0.248167 2 5 cbr 1024 ------- 0 2.0 0.1 36 144
h 0.248261 1 5 cbr 1024 ------- 0 1.0 0.0 37 145
+ 0.248287 1 5 cbr 1024 ------- 0 1.0 0.0 37 145
- 0.248433 1 5 cbr 1024 ------- 0 1.0 0.0 4 16
r 0.248453 5 0 cbr 1024 ------- 0 1.0 0.0 3 11
h 0.248754 4 5 cbr 1024 ------- 0 4.0 0.3 35 146
h 0.248775 3 5 cbr 1024 ------- 0 3.0 0.2 36 147
+ 0.24878 4 5 cbr 1024 ------- 0 4.0 0.3 35 146
- 0.24878 4 5 cbr 1024 ------- 0 4.0 0.3 35 146
+ 0.248801 3 5 cbr 1024 ------- 0 3.0 0.2 36 147
h 0.249321 1 5 cbr 1024 ------- 0 1.0 0.0 38 148
- 0.249345 1 5 cbr 1024 ------- 0 1.0 0.0 5 22
+ 0.249347 1 5 cbr 1024 ------- 0 1.0 0.0 38 148
h 0.249359 2 5 cbr 1024 ------- 0 2.0 0.1 37 149
r 0.249365 5 0 cbr 1024 ------- 0 1.0 0.0 4 16
+ 0.249384 2 5 cbr 1024 ------- 0 2.0 0.1 37 149
h 0.249485 4 5 cbr 1024 ------- 0 4.0 0.3 36 150
+ 0.249511 4 5 cbr 1024 ------- 0 4.0 0.3 36 150
- 0.250206 1 5 cbr 1024 ------- 0 1.0 0.0 6 24
h 0.250208 1 5 cbr 1024 ------- 0 1.0 0.0 39 151
h 0.250219 2 5 cbr 1024 ------- 0 2.0 0.1 38 152
r 0.250226 5 0 cbr 1024 ------- 0 1.0 0.0 5 22
+ 0.250234 1 5 cbr 1024 ------- 0 1.0 0.0 39 151
h 0.250244 4 5 cbr 1024 ------- 0 4.0 0.3 37 153
+ 0.250245 2 5 cbr 1024 ------- 0 2.0 0.1 38 152
+ 0.250269 4 5 cbr 1024 ------- 0 4.0 0.3 37 153
h 0.250342 3 5 cbr 1024 ------- 0 3.0 0.2 37 154
+ 0.250368 3 5 cbr 1024 ------- 0 3.0 0.2 37 154
- 0.251067 1 5 cbr 1024 ------- 0 1.0 0.0 7 30
r 0.251087 5 0 cbr 1024 ------- 0 1.0 0.0 6 24
h 0.251414 2 5 cbr 1024 ------- 0 2.0 0.1 39 155
h 0.251437 4 5 cbr 1024 ------- 0 4.0 0.3 38 156
+ 0.25144 2 5 cbr 1024 ------- 0 2.0 0.1 39 155
+ 0.251462 4 5 cbr 1024 ------- 0 4.0 0.3 38 156
h 0.251596 1 5 cbr 1024 ------- 0 1.0 0.0 40 157
+ 0.251622 1 5 cbr 1024 ------- 0 1.0 0.0 40 157
- 0.251979 1 5 cbr 1024 ------- 0 1.0 0.0 8 33
r 0.251999 5 0 cbr 1024 ------- 0 1.0 0.0 7 30
h 0.252085 3 5 cbr 1024 ------- 0 3.0 0.2 38 158
+ 0.252111 3 5 cbr 1024 ------- 0 3.0 0.2 38 158
- 0.252891 1 5 cbr 1024 ------- 0 1.0 0.0 9 38
h 0.252909 1 5 cbr 1024 ------- 0 1.0 0.0 41 159
r 0.252911 5 0 cbr 1024 ------- 0 1.0 0.0 8 33
+ 0.252934 1 5 cbr 1024 ------- 0 1.0 0.0 41 159
h 0.253077 4 5 cbr 1024 ------- 0 4.0 0.3 39 160
+ 0.253102 4 5 cbr 1024 ------- 0 4.0 0.3 39 160
h 0.253246 2 5 cbr 1024 ------- 0 2.0 0.1 40 161
+ 0.253271 2 5 cbr 1024 ------- 0 2.0 0.1 40 161
h 0.253561 3 5 cbr 1024 ------- 0 3.0 0.2 39 162
+ 0.253586 3 5 cbr 1024 ------- 0 3.0 0.2 39 162
h 0.25368 1 5 cbr 1024 ------- 0 1.0 0.0 42 163
+ 0.253706 1 5 cbr 1024 ------- 0 1.0 0.0 42 163
- 0.253752 1 5 cbr 1024 ------- 0 1.0 0.0 10 44
r 0.253772 5 0 cbr 1024 ------- 0 1.0 0.0 9 38
h 0.254186 4 5 cbr 1024 ------- 0 4.0 0.3 40 164
+ 0.254212 4 5 cbr 1024 ------- 0 4.0 0.3 40 164
- 0.254592 1 5 cbr 1024 ------- 0 1.0 0.0 11 45
r 0.254612 5 0 cbr 1024 ------- 0 1.0 0.0 10 44
h 0.254889 3 5 cbr 1024 ------- 0 3.0 0.2 40 165
+ 0.254915 3 5 cbr 1024 ------- 0 3.0 0.2 40 165
h 0.255079 2 5 cbr 1024 ------- 0 2.0 0.1 41 166
+ 0.255105 2 5 cbr 1024 ------- 0 2.0 0.1 41 166
- 0.255452 1 5 cbr 1024 ------- 0 1.0 0.0 12 49
r 0.255472 5 0 cbr 1024 ------- 0 1.0 0.0 11 45
h 0.255556 4 5 cbr 1024 ------- 0 4.0 0.3 41 167
+ 0.255581 4 5 cbr 1024 ------- 0 4.0 0.3 41 167
h 0.255711 1 5 cbr 1024 ------- 0 1.0 0.0 43 168
+ 0.255736 1 5 cbr 1024 ------- 0 1.0 0.0 43 168
- 0.256364 1 5 cbr 1024 ------- 0 1.0 0.0 13 51
r 0.256384 5 0 cbr 1024 ------- 0 1.0 0.0 12 49
h 0.256822 3 5 cbr 1024 ------- 0 3.0 0.2 41 169
+ 0.256848 3 5 cbr 1024 ------- 0 3.0 0.2 41 169
h 0.256994 2 5 cbr 1024 ------- 0 2.0 0.1 42 170
h 0.257005 1 5 cbr 1024 ------- 0 1.0 0.0 44 171
+ 0.25702 2 5 cbr 1024 ------- 0 2.0 0.1 42 170
+ 0.257031 1 5 cbr 1024 ------- 0 1.0 0.0 44 171
- 0.257276 1 5 cbr 1024 ------- 0 1.0 0.0 14 55
h 0.257288 4 5 cbr 1024 ------- 0 4.0 0.3 42 172
r 0.257296 5 0 cbr 1024 ------- 0 1.0 0.0 13 51
+ 0.257314 4 5 cbr 1024 ------- 0 4.0 0.3 42 172
h 0.257872 3 5 cbr 1024 ------- 0 3.0 0.2 42 173
+ 0.257897 3 5 cbr 1024 ------- 0 3.0 0.2 42 173
- 0.258116 1 5 cbr 1024 ------- 0 1.0 0.0 15 58
r 0.258136 5 0 cbr 1024 ------- 0 1.0 0.0 14 55
h 0.258142 2 5 cbr 1024 ------- 0 2.0 0.1 43 174
+ 0.258168 2 5 cbr 1024 ------- 0 2.0 0.1 43 174
h 0.258297 1 5 cbr 1024 ------- 0 1.0 0.0 45 175
+ 0.258323 1 5 cbr 1024 ------- 0 1.0 0.0 45 175
h 0.258773 4 5 cbr 1024 ------- 0 4.0 0.3 43 176
+ 0.258799 4 5 cbr 1024 ------- 0 4.0 0.3 43 176
- 0.258956 1 5 cbr 1024 ------- 0 1.0 0.0 16 62
r 0.258976 5 0 cbr 1024 ------- 0 1.0 0.0 15 58
h 0.259323 1 5 cbr 1024 ------- 0 1.0 0.0 46 177
+ 0.259349 1 5 cbr 1024 ------- 0 1.0 0.0 46 177
h 0.259445 3 5 cbr 1024 ------- 0 3.0 0.2 43 178
+ 0.25947 3 5 cbr 1024 ------- 0 3.0 0.2 43 178
h 0.259503 4 5 cbr 1024 ------- 0 4.0 0.3 44 179
+ 0.259529 4 5 cbr 1024 ------- 0 4.0 0.3 44 179
h 0.259609 2 5 cbr 1024 ------- 0 2.0 0.1 44 180
+ 0.259635 2 5 cbr 1024 ------- 0 2.0 0.1 44 180
- 0.259796 1 5 cbr 1024 ------- 0 1.0 0.0 17 66
r 0.259816 5 0 cbr 1024 ------- 0 1.0 0.0 16 62
h 0.260095 1 5 cbr 1024 ------- 0 1.0 0.0 47 181
+ 0.260121 1 5 cbr 1024 ------- 0 1.0 0.0 47 181
h 0.260297 4 5 cbr 1024 ------- 0 4.0 0.3 45 182
+ 0.260323 4 5 cbr 1024 ------- 0 4.0 0.3 45 182
- 0.260636 1 5 cbr 1024 ------- 0 1.0 0.0 18 71
r 0.260656 5 0 cbr 1024 ------- 0 1.0 0.0 17 66
h 0.2608 3 5 cbr 1024 ------- 0 3.0 0.2 44 183
+ 0.260825 3 5 cbr 1024 ------- 0 3.0 0.2 44 183
h 0.261433 2 5 cbr 1024 ------- 0 2.0 0.1 45 184
h 0.261446 1 5 cbr 1024 ------- 0 1.0 0.0 48 185
+ 0.261459 2 5 cbr 1024 ------- 0 2.0 0.1 45 184
+ 0.261472 1 5 cbr 1024 ------- 0 1.0 0.0 48 185
- 0.261548 1 5 cbr 1024 ------- 0 1.0 0.0 19 73
r 0.261568 5 0 cbr 1024 ------- 0 1.0 0.0 18 71
h 0.261638 4 5 cbr 1024 ------- 0 4.0 0.3 46 186
+ 0.261664 4 5 cbr 1024 ------- 0 4.0 0.3 46 186
- 0.262388 1 5 cbr 1024 ------- 0 1.0 0.0 20 79
r 0.262408 5 0 cbr 1024 ------- 0 1.0 0.0 19 73
h 0.262416 3 5 cbr 1024 ------- 0 3.0 0.2 45 187
+ 0.262442 3 5 cbr 1024 ------- 0 3.0 0.2 45 187
h 0.262723 1 5 cbr 1024 ------- 0 1.0 0.0 49 188
h 0.262735 4 5 cbr 1024 ------- 0 4.0 0.3 47 189
+ 0.262749 1 5 cbr 1024 ------- 0 1.0 0.0 49 188
+ 0.262761 4 5 cbr 1024 ------- 0 4.0 0.3 47 189
- 0.263228 1 5 cbr 1024 ------- 0 1.0 0.0 21 83
r 0.263248 5 0 cbr 1024 ------- 0 1.0 0.0 20 79
h 0.263275 3 5 cbr 1024 ------- 0 3.0 0.2 46 190
h 0.263279 2 5 cbr 1024 ------- 0 2.0 0.1 46 191
+ 0.2633 3 5 cbr 1024 ------- 0 3.0 0.2 46 190
+ 0.263305 2 5 cbr 1024 ------- 0 2.0 0.1 46 191
h 0.263844 1 5 cbr 1024 ------- 0 1.0 0.0 50 192
+ 0.26387 1 5 cbr 1024 ------- 0 1.0 0.0 50 192
- 0.264068 1 5 cbr 1024 ------- 0 1.0 0.0 22 85
r 0.264088 5 0 cbr 1024 ------- 0 1.0 0.0 21 83
h 0.264211 4 5 cbr 1024 ------- 0 4.0 0.3 48 193
+ 0.264236 4 5 cbr 1024 ------- 0 4.0 0.3 48 193
h 0.264314 2 5 cbr 1024 ------- 0 2.0 0.1 47 194
+ 0.264339 2 5 cbr 1024 ------- 0 2.0 0.1 47 194
h 0.264598 3 5 cbr 1024 ------- 0 3.0 0.2 47 195
+ 0.264624 3 5 cbr 1024 ------- 0 3.0 0.2 47 195
- 0.264908 1 5 cbr 1024 ------- 0 1.0 0.0 23 89
r 0.264928 5 0 cbr 1024 ------- 0 1.0 0.0 22 85
h 0.265027 4 5 cbr 1024 ------- 0 4.0 0.3 49 196
h 0.265035 1 5 cbr 1024 ------- 0 1.0 0.0 51 197
+ 0.265053 4 5 cbr 1024 ------- 0 4.0 0.3 49 196
+ 0.265061 1 5 cbr 1024 ------- 0 1.0 0.0 51 197
h 0.265112 2 5 cbr 1024 ------- 0 2.0 0.1 48 198
+ 0.265138 2 5 cbr 1024 ------- 0 2.0 0.1 48 198
- 0.265748 1 5 cbr 1024 ------- 0 1.0 0.0 24 93
r 0.265768 5 0 cbr 1024 ------- 0 1.0 0.0 23 89
h 0.265823 1 5 cbr 1024 ------- 0 1.0 0.0 52 199
+ 0.265848 1 5 cbr 1024 ------- 0 1.0 0.0 52 199
h 0.26593 3 5 cbr 1024 ------- 0 3.0 0.2 48 200
+ 0.265956 3 5 cbr 1024 ------- 0 3.0 0.2 48 200
h 0.266372 4 5 cbr 1024 ------- 0 4.0 0.3 50 201
+ 0.266398 4 5 cbr 1024 ------- 0 4.0 0.3 50 201
h 0.2664 2 5 cbr 1024 ------- 0 2.0 0.1 49 202
+ 0.266425 2 5 cbr 1024 ------- 0 2.0 0.1 49 202
h 0.266608 1 5 cbr 1024 ------- 0 1.0 0.0 53 203
+ 0.266634 1 5 cbr 1024 ------- 0 1.0 0.0 53 203
- 0.26666 1 5 cbr 1024 ------- 0 1.0 0.0 25 98
r 0.26668 5 0 cbr 1024 ------- 0 1.0 0.0 24 93
h 0.267469 4 5 cbr 1024 ------- 0 4.0 0.3 51 204
+ 0.267495 4 5 cbr 1024 ------- 0 4.0 0.3 51 204
- 0.267521 1 5 cbr 1024 ------- 0 1.0 0.0 26 102
r 0.267541 5 0 cbr 1024 ------- 0 1.0 0.0 25 98
h 0.267641 2 5 cbr 1024 ------- 0 2.0 0.1 50 205
+ 0.267667 2 5 cbr 1024 ------- 0 2.0 0.1 50 205
h 0.267873 3 5 cbr 1024 ------- 0 3.0 0.2 49 206
+ 0.267898 3 5 cbr 1024 ------- 0 3.0 0.2 49 206
h 0.268256 1 5 cbr 1024 ------- 0 1.0 0.0 54 207
+ 0.268281 1 5 cbr 1024 ------- 0 1.0 0.0 54 207
- 0.268361 1 5 cbr 1024 ------- 0 1.0 0.0 27 105
r 0.268381 5 0 cbr 1024 ------- 0 1.0 0.0 26 102
h 0.268819 2 5 cbr 1024 ------- 0 2.0 0.1 51 208
+ 0.268844 2 5 cbr 1024 ------- 0 2.0 0.1 51 208
- 0.269201 1 5 cbr 1024 ------- 0 1.0 0.0 28 111
r 0.269221 5 0 cbr 1024 ------- 0 1.0 0.0 27 105
h 0.269498 4 5 cbr 1024 ------- 0 4.0 0.3 52 209
+ 0.269524 4 5 cbr 1024 ------- 0 4.0 0.3 52 209
h 0.269644 3 5 cbr 1024 ------- 0 3.0 0.2 50 210
+ 0.269669 3 5 cbr 1024 ------- 0 3.0 0.2 50 210
h 0.269771 1 5 cbr 1024 ------- 0 1.0 0.0 55 211
+ 0.269796 1 5 cbr 1024 ------- 0 1.0 0.0 55 211
- 0.270041 1 5 cbr 1024 ------- 0 1.0 0.0 29 112
r 0.270061 5 0 cbr 1024 ------- 0 1.0 0.0 28 111
h 0.270182 2 5 cbr 1024 ------- 0 2.0 0.1 52 212
+ 0.270207 2 5 cbr 1024 ------- 0 2.0 0.1 52 212
h 0.270361 4 5 cbr 1024 ------- 0 4.0 0.3 53 213
+ 0.270387 4 5 cbr 1024 ------- 0 4.0 0.3 53 213
- 0.270881 1 5 cbr 1024 ------- 0 1.0 0.0 30 119
r 0.270901 5 0 cbr 1024 ------- 0 1.0 0.0 29 112
h 0.27156 3 5 cbr 1024 ------- 0 3.0 0.2 51 214
+ 0.271585 3 5 cbr 1024 ------- 0 3.0 0.2 51 214
d 0.271585 3 5 cbr 1024 ------- 0 3.0 0.2 51 214
h 0.271673 4 5 cbr 1024 ------- 0 4.0 0.3 54 215
h 0.271683 1 5 cbr 1024 ------- 0 1.0 0.0 56 216
+ 0.271698 4 5 cbr 1024 ------- 0 4.0 0.3 54 215
+ 0.271709 1 5 cbr 1024 ------- 0 1.0 0.0 56 216
- 0.271721 1 5 cbr 1024 ------- 0 1.0 0.0 31 120
r 0.271741 5 0 cbr 1024 ------- 0 1.0 0.0 30 119
h 0.272048 2 5 cbr 1024 ------- 0 2.0 0.1 53 217
+ 0.272073 2 5 cbr 1024 ------- 0 2.0 0.1 53 217
h 0.272359 3 5 cbr 1024 ------- 0 3.0 0.2 52 218
+ 0.272385 3 5 cbr 1024 ------- 0 3.0 0.2 52 218
d 0.272385 3 5 cbr 1024 ------- 0 3.0 0.2 52 218
h 0.272442 4 5 cbr 1024 ------- 0 4.0 0.3 55 219
+ 0.272468 4 5 cbr 1024 ------- 0 4.0 0.3 55 219
- 0.272561 1 5 cbr 1024 ------- 0 1.0 0.0 32 126
r 0.272581 5 0 cbr 1024 ------- 0 1.0 0.0 31 120
h 0.273145 1 5 cbr 1024 ------- 0 1.0 0.0 57 220
+ 0.273171 1 5 cbr 1024 ------- 0 1.0 0.0 57 220
- 0.273401 1 5 cbr 1024 ------- 0 1.0 0.0 33 129
r 0.273421 5 0 cbr 1024 ------- 0 1.0 0.0 32 126
h 0.273426 3 5 cbr 1024 ------- 0 3.0 0.2 53 221
+ 0.273451 3 5 cbr 1024 ------- 0 3.0 0.2 53 221
d 0.273451 3 5 cbr 1024 ------- 0 3.0 0.2 53 221
h 0.273701 2 5 cbr 1024 ------- 0 2.0 0.1 54 222
+ 0.273726 2 5 cbr 1024 ------- 0 2.0 0.1 54 222
h 0.273937 4 5 cbr 1024 ------- 0 4.0 0.3 56 223
+ 0.273963 4 5 cbr 1024 ------- 0 4.0 0.3 56 223
- 0.274241 1 5 cbr 1024 ------- 0 1.0 0.0 34 132
r 0.274261 5 0 cbr 1024 ------- 0 1.0 0.0 33 129
h 0.27485 3 5 cbr 1024 ------- 0 3.0 0.2 54 224
+ 0.274876 3 5 cbr 1024 ------- 0 3.0 0.2 54 224
d 0.274876 3 5 cbr 1024 ------- 0 3.0 0.2 54 224
h 0.274925 1 5 cbr 1024 ------- 0 1.0 0.0 58 225
+ 0.27495 1 5 cbr 1024 ------- 0 1.0 0.0 58 225
- 0.275081 1 5 cbr 1024 ------- 0 1.0 0.0 35 136
r 0.275101 5 0 cbr 1024 ------- 0 1.0 0.0 34 132