+ 0.25 0 3 tcp 960 ------- 0 0.0 3.0 0 0
- 0.25 0 3 tcp 960 ------- 0 0.0 3.0 0 0
+ 0.25 0 3 tcp 1000 ------- 0 0.0 3.0 1 1
+ 0.25 0 3 tcp 1000 ------- 0 0.0 3.0 2 2
+ 0.25 0 3 tcp 1000 ------- 0 0.0 3.0 3 3
+ 0.25 0 3 tcp 1000 ------- 0 0.0 3.0 4 4
+ 0.25 0 3 tcp 1000 ------- 0 0.0 3.0 5 5
+ 0.25 0 3 tcp 1000 ------- 0 0.0 3.0 6 6
+ 0.25 0 3 tcp 1000 ------- 0 0.0 3.0 7 7
+ 0.25 0 3 tcp 1000 ------- 0 0.0 3.0 8 8
+ 0.25 0 3 tcp 1000 ------- 0 0.0 3.0 9 9
+ 0.25 1 2 tcp 960 ------- 1 1.0 2.0 0 10
- 0.25 1 2 tcp 960 ------- 1 1.0 2.0 0 10
- 0.25256 0 3 tcp 1000 ------- 0 0.0 3.0 1 1
- 0.255227 0 3 tcp 1000 ------- 0 0.0 3.0 2 2
- 0.257893 0 3 tcp 1000 ------- 0 0.0 3.0 3 3
- 0.26056 0 3 tcp 1000 ------- 0 0.0 3.0 4 4
- 0.263227 0 3 tcp 1000 ------- 0 0.0 3.0 5 5
- 0.265893 0 3 tcp 1000 ------- 0 0.0 3.0 6 6
- 0.26856 0 3 tcp 1000 ------- 0 0.0 3.0 7 7
- 0.271227 0 3 tcp 1000 ------- 0 0.0 3.0 8 8
- 0.273893 0 3 tcp 1000 ------- 0 0.0 3.0 9 9
r 0.43056 0 3 tcp 960 ------- 0 0.0 3.0 0 0
+ 0.43056 3 0 ack 40 ------- 0 3.0 0.0 0 11
- 0.43056 3 0 ack 40 ------- 0 3.0 0.0 0 11
r 0.43056 1 2 tcp 960 ------- 1 1.0 2.0 0 10
+ 0.43056 2 1 ack 40 ------- 1 2.0 1.0 0 12
- 0.43056 2 1 ack 40 ------- 1 2.0 1.0 0 12
r 0.433227 0 3 tcp 1000 ------- 0 0.0 3.0 1 1
+ 0.433227 3 0 ack 40 ------- 0 3.0 0.0 1 13
- 0.433227 3 0 ack 40 ------- 0 3.0 0.0 1 13
r 0.435893 0 3 tcp 1000 ------- 0 0.0 3.0 2 2
+ 0.435893 3 0 ack 40 ------- 0 3.0 0.0 2 14
- 0.435893 3 0 ack 40 ------- 0 3.0 0.0 2 14
r 0.43856 0 3 tcp 1000 ------- 0 0.0 3.0 3 3
+ 0.43856 3 0 ack 40 ------- 0 3.0 0.0 3 15
- 0.43856 3 0 ack 40 ------- 0 3.0 0.0 3 15
r 0.441227 0 3 tcp 1000 ------- 0 0.0 3.0 4 4
+ 0.441227 3 0 ack 40 ------- 0 3.0 0.0 4 16
- 0.441227 3 0 ack 40 ------- 0 3.0 0.0 4 16
r 0.443893 0 3 tcp 1000 ------- 0 0.0 3.0 5 5
+ 0.443893 3 0 ack 40 ------- 0 3.0 0.0 5 17
- 0.443893 3 0 ack 40 ------- 0 3.0 0.0 5 17
r 0.44656 0 3 tcp 1000 ------- 0 0.0 3.0 6 6
+ 0.44656 3 0 ack 40 ------- 0 3.0 0.0 6 18
- 0.44656 3 0 ack 40 ------- 0 3.0 0.0 6 18
r 0.449227 0 3 tcp 1000 ------- 0 0.0 3.0 7 7
+ 0.449227 3 0 ack 40 ------- 0 3.0 0.0 7 19
- 0.449227 3 0 ack 40 ------- 0 3.0 0.0 7 19
r 0.451893 0 3 tcp 1000 ------- 0 0.0 3.0 8 8
+ 0.451893 3 0 ack 40 ------- 0 3.0 0.0 8 20
- 0.451893 3 0 ack 40 ------- 0 3.0 0.0 8 20
r 0.45456 0 3 tcp 1000 ------- 0 0.0 3.0 9 9
+ 0.45456 3 0 ack 40 ------- 0 3.0 0.0 9 21
- 0.45456 3 0 ack 40 ------- 0 3.0 0.0 9 21
r 0.608667 3 0 ack 40 ------- 0 3.0 0.0 0 11
+ 0.608667 0 3 tcp 1000 ------- 0 0.0 3.0 10 22
- 0.608667 0 3 tcp 1000 ------- 0 0.0 3.0 10 22
r 0.608667 2 1 ack 40 ------- 1 2.0 1.0 0 12
+ 0.608667 1 2 tcp 1000 ------- 1 1.0 2.0 1 23
- 0.608667 1 2 tcp 1000 ------- 1 1.0 2.0 1 23
r 0.611333 3 0 ack 40 ------- 0 3.0 0.0 1 13
+ 0.611333 0 3 tcp 1000 ------- 0 0.0 3.0 11 24
- 0.611333 0 3 tcp 1000 ------- 0 0.0 3.0 11 24
r 0.614 3 0 ack 40 ------- 0 3.0 0.0 2 14
+ 0.614 0 3 tcp 1000 ------- 0 0.0 3.0 12 25
- 0.614 0 3 tcp 1000 ------- 0 0.0 3.0 12 25
r 0.616667 3 0 ack 40 ------- 0 3.0 0.0 3 15
+ 0.616667 0 3 tcp 1000 ------- 0 0.0 3.0 13 26
- 0.616667 0 3 tcp 1000 ------- 0 0.0 3.0 13 26
r 0.619333 3 0 ack 40 ------- 0 3.0 0.0 4 16
+ 0.619333 0 3 tcp 1000 ------- 0 0.0 3.0 14 27
- 0.619333 0 3 tcp 1000 ------- 0 0.0 3.0 14 27
r 0.622 3 0 ack 40 ------- 0 3.0 0.0 5 17
+ 0.622 0 3 tcp 1000 ------- 0 0.0 3.0 15 28
- 0.622 0 3 tcp 1000 ------- 0 0.0 3.0 15 28
r 0.624667 3 0 ack 40 ------- 0 3.0 0.0 6 18
+ 0.624667 0 3 tcp 1000 ------- 0 0.0 3.0 16 29
- 0.624667 0 3 tcp 1000 ------- 0 0.0 3.0 16 29
r 0.627333 3 0 ack 40 ------- 0 3.0 0.0 7 19
+ 0.627333 0 3 tcp 1000 ------- 0 0.0 3.0 17 30
- 0.627333 0 3 tcp 1000 ------- 0 0.0 3.0 17 30
r 0.63 3 0 ack 40 ------- 0 3.0 0.0 8 20
+ 0.63 0 3 tcp 1000 ------- 0 0.0 3.0 18 31
- 0.63 0 3 tcp 1000 ------- 0 0.0 3.0 18 31
r 0.632667 3 0 ack 40 ------- 0 3.0 0.0 9 21
+ 0.632667 0 3 tcp 1000 ------- 0 0.0 3.0 19 32
- 0.632667 0 3 tcp 1000 ------- 0 0.0 3.0 19 32
r 0.789333 0 3 tcp 1000 ------- 0 0.0 3.0 10 22
+ 0.789333 3 0 ack 40 ------- 0 3.0 0.0 10 33
- 0.789333 3 0 ack 40 ------- 0 3.0 0.0 10 33
r 0.789333 1 2 tcp 1000 ------- 1 1.0 2.0 1 23
+ 0.789333 2 1 ack 40 ------- 1 2.0 1.0 1 34
- 0.789333 2 1 ack 40 ------- 1 2.0 1.0 1 34
r 0.792 0 3 tcp 1000 ------- 0 0.0 3.0 11 24
+ 0.792 3 0 ack 40 ------- 0 3.0 0.0 11 35
- 0.792 3 0 ack 40 ------- 0 3.0 0.0 11 35
r 0.794667 0 3 tcp 1000 ------- 0 0.0 3.0 12 25
+ 0.794667 3 0 ack 40 ------- 0 3.0 0.0 12 36
- 0.794667 3 0 ack 40 ------- 0 3.0 0.0 12 36
r 0.797333 0 3 tcp 1000 ------- 0 0.0 3.0 13 26
+ 0.797333 3 0 ack 40 ------- 0 3.0 0.0 13 37
- 0.797333 3 0 ack 40 ------- 0 3.0 0.0 13 37
r 0.8 0 3 tcp 1000 ------- 0 0.0 3.0 14 27
+ 0.8 3 0 ack 40 ------- 0 3.0 0.0 14 38
- 0.8 3 0 ack 40 ------- 0 3.0 0.0 14 38
r 0.802667 0 3 tcp 1000 ------- 0 0.0 3.0 15 28
+ 0.802667 3 0 ack 40 ------- 0 3.0 0.0 15 39
- 0.802667 3 0 ack 40 ------- 0 3.0 0.0 15 39
r 0.805333 0 3 tcp 1000 ------- 0 0.0 3.0 16 29
+ 0.805333 3 0 ack 40 ------- 0 3.0 0.0 16 40
- 0.805333 3 0 ack 40 ------- 0 3.0 0.0 16 40
r 0.808 0 3 tcp 1000 ------- 0 0.0 3.0 17 30
+ 0.808 3 0 ack 40 ------- 0 3.0 0.0 17 41
- 0.808 3 0 ack 40 ------- 0 3.0 0.0 17 41
r 0.810667 0 3 tcp 1000 ------- 0 0.0 3.0 18 31
+ 0.810667 3 0 ack 40 ------- 0 3.0 0.0 18 42
- 0.810667 3 0 ack 40 ------- 0 3.0 0.0 18 42
r 0.813333 0 3 tcp 1000 ------- 0 0.0 3.0 19 32
+ 0.813333 3 0 ack 40 ------- 0 3.0 0.0 19 43
- 0.813333 3 0 ack 40 ------- 0 3.0 0.0 19 43
r 0.96744 3 0 ack 40 ------- 0 3.0 0.0 10 33
+ 0.96744 0 3 tcp 1000 ------- 0 0.0 3.0 20 44
- 0.96744 0 3 tcp 1000 ------- 0 0.0 3.0 20 44
r 0.96744 2 1 ack 40 ------- 1 2.0 1.0 1 34
+ 0.96744 1 2 tcp 1000 ------- 1 1.0 2.0 2 45
- 0.96744 1 2 tcp 1000 ------- 1 1.0 2.0 2 45
r 0.970107 3 0 ack 40 ------- 0 3.0 0.0 11 35
+ 0.970107 0 3 tcp 1000 ------- 0 0.0 3.0 21 46
- 0.970107 0 3 tcp 1000 ------- 0 0.0 3.0 21 46
r 0.972773 3 0 ack 40 ------- 0 3.0 0.0 12 36
+ 0.972773 0 3 tcp 1000 ------- 0 0.0 3.0 22 47
- 0.972773 0 3 tcp 1000 ------- 0 0.0 3.0 22 47
r 0.97544 3 0 ack 40 ------- 0 3.0 0.0 13 37
+ 0.97544 0 3 tcp 1000 ------- 0 0.0 3.0 23 48
- 0.97544 0 3 tcp 1000 ------- 0 0.0 3.0 23 48
r 0.978107 3 0 ack 40 ------- 0 3.0 0.0 14 38
+ 0.978107 0 3 tcp 1000 ------- 0 0.0 3.0 24 49
- 0.978107 0 3 tcp 1000 ------- 0 0.0 3.0 24 49
r 0.980773 3 0 ack 40 ------- 0 3.0 0.0 15 39
+ 0.980773 0 3 tcp 1000 ------- 0 0.0 3.0 25 50
- 0.980773 0 3 tcp 1000 ------- 0 0.0 3.0 25 50
r 0.98344 3 0 ack 40 ------- 0 3.0 0.0 16 40
+ 0.98344 0 3 tcp 1000 ------- 0 0.0 3.0 26 51
- 0.98344 0 3 tcp 1000 ------- 0 0.0 3.0 26 51
r 0.986107 3 0 ack 40 ------- 0 3.0 0.0 17 41
+ 0.986107 0 3 tcp 1000 ------- 0 0.0 3.0 27 52
- 0.986107 0 3 tcp 1000 ------- 0 0.0 3.0 27 52
r 0.988773 3 0 ack 40 ------- 0 3.0 0.0 18 42
+ 0.988773 0 3 tcp 1000 ------- 0 0.0 3.0 28 53
- 0.988773 0 3 tcp 1000 ------- 0 0.0 3.0 28 53
r 0.99144 3 0 ack 40 ------- 0 3.0 0.0 19 43
+ 0.99144 0 3 tcp 1000 ------- 0 0.0 3.0 29 54
- 0.99144 0 3 tcp 1000 ------- 0 0.0 3.0 29 54
r 1.148107 0 3 tcp 1000 ------- 0 0.0 3.0 20 44
+ 1.148107 3 0 ack 40 ------- 0 3.0 0.0 20 55
- 1.148107 3 0 ack 40 ------- 0 3.0 0.0 20 55
r 1.148107 1 2 tcp 1000 ------- 1 1.0 2.0 2 45
+ 1.148107 2 1 ack 40 ------- 1 2.0 1.0 2 56
- 1.148107 2 1 ack 40 ------- 1 2.0 1.0 2 56
r 1.150773 0 3 tcp 1000 ------- 0 0.0 3.0 21 46
+ 1.150773 3 0 ack 40 ------- 0 3.0 0.0 21 57
- 1.150773 3 0 ack 40 ------- 0 3.0 0.0 21 57
r 1.15344 0 3 tcp 1000 ------- 0 0.0 3.0 22 47
+ 1.15344 3 0 ack 40 ------- 0 3.0 0.0 22 58
- 1.15344 3 0 ack 40 ------- 0 3.0 0.0 22 58
r 1.156107 0 3 tcp 1000 ------- 0 0.0 3.0 23 48
+ 1.156107 3 0 ack 40 ------- 0 3.0 0.0 23 59
- 1.156107 3 0 ack 40 ------- 0 3.0 0.0 23 59
r 1.158773 0 3 tcp 1000 ------- 0 0.0 3.0 24 49
+ 1.158773 3 0 ack 40 ------- 0 3.0 0.0 24 60
- 1.158773 3 0 ack 40 ------- 0 3.0 0.0 24 60
r 1.16144 0 3 tcp 1000 ------- 0 0.0 3.0 25 50
+ 1.16144 3 0 ack 40 ------- 0 3.0 0.0 25 61
- 1.16144 3 0 ack 40 ------- 0 3.0 0.0 25 61
r 1.164107 0 3 tcp 1000 ------- 0 0.0 3.0 26 51
+ 1.164107 3 0 ack 40 ------- 0 3.0 0.0 26 62
- 1.164107 3 0 ack 40 ------- 0 3.0 0.0 26 62
r 1.166773 0 3 tcp 1000 ------- 0 0.0 3.0 27 52
+ 1.166773 3 0 ack 40 ------- 0 3.0 0.0 27 63
- 1.166773 3 0 ack 40 ------- 0 3.0 0.0 27 63
r 1.16944 0 3 tcp 1000 ------- 0 0.0 3.0 28 53
+ 1.16944 3 0 ack 40 ------- 0 3.0 0.0 28 64
- 1.16944 3 0 ack 40 ------- 0 3.0 0.0 28 64
r 1.172107 0 3 tcp 1000 ------- 0 0.0 3.0 29 54
+ 1.172107 3 0 ack 40 ------- 0 3.0 0.0 29 65
- 1.172107 3 0 ack 40 ------- 0 3.0 0.0 29 65
r 1.326213 3 0 ack 40 ------- 0 3.0 0.0 20 55
+ 1.326213 0 3 tcp 1000 ------- 0 0.0 3.0 30 66
- 1.326213 0 3 tcp 1000 ------- 0 0.0 3.0 30 66
r 1.326213 2 1 ack 40 ------- 1 2.0 1.0 2 56
+ 1.326213 1 2 tcp 1000 ------- 1 1.0 2.0 3 67
- 1.326213 1 2 tcp 1000 ------- 1 1.0 2.0 3 67
r 1.32888 3 0 ack 40 ------- 0 3.0 0.0 21 57
+ 1.32888 0 3 tcp 1000 ------- 0 0.0 3.0 31 68
- 1.32888 0 3 tcp 1000 ------- 0 0.0 3.0 31 68
r 1.331547 3 0 ack 40 ------- 0 3.0 0.0 22 58
+ 1.331547 0 3 tcp 1000 ------- 0 0.0 3.0 32 69
- 1.331547 0 3 tcp 1000 ------- 0 0.0 3.0 32 69
r 1.334213 3 0 ack 40 ------- 0 3.0 0.0 23 59
+ 1.334213 0 3 tcp 1000 ------- 0 0.0 3.0 33 70
- 1.334213 0 3 tcp 1000 ------- 0 0.0 3.0 33 70
r 1.33688 3 0 ack 40 ------- 0 3.0 0.0 24 60
+ 1.33688 0 3 tcp 1000 ------- 0 0.0 3.0 34 71
- 1.33688 0 3 tcp 1000 ------- 0 0.0 3.0 34 71
r 1.339547 3 0 ack 40 ------- 0 3.0 0.0 25 61
+ 1.339547 0 3 tcp 1000 ------- 0 0.0 3.0 35 72
- 1.339547 0 3 tcp 1000 ------- 0 0.0 3.0 35 72
r 1.342213 3 0 ack 40 ------- 0 3.0 0.0 26 62
+ 1.342213 0 3 tcp 1000 ------- 0 0.0 3.0 36 73
- 1.342213 0 3 tcp 1000 ------- 0 0.0 3.0 36 73
r 1.34488 3 0 ack 40 ------- 0 3.0 0.0 27 63
+ 1.34488 0 3 tcp 1000 ------- 0 0.0 3.0 37 74
- 1.34488 0 3 tcp 1000 ------- 0 0.0 3.0 37 74
r 1.347547 3 0 ack 40 ------- 0 3.0 0.0 28 64
+ 1.347547 0 3 tcp 1000 ------- 0 0.0 3.0 38 75
- 1.347547 0 3 tcp 1000 ------- 0 0.0 3.0 38 75
r 1.350213 3 0 ack 40 ------- 0 3.0 0.0 29 65
+ 1.350213 0 3 tcp 1000 ------- 0 0.0 3.0 39 76
- 1.350213 0 3 tcp 1000 ------- 0 0.0 3.0 39 76
r 1.50688 0 3 tcp 1000 ------- 0 0.0 3.0 30 66
+ 1.50688 3 0 ack 40 ------- 0 3.0 0.0 30 77
- 1.50688 3 0 ack 40 ------- 0 3.0 0.0 30 77
r 1.50688 1 2 tcp 1000 ------- 1 1.0 2.0 3 67
+ 1.50688 2 1 ack 40 ------- 1 2.0 1.0 3 78
- 1.50688 2 1 ack 40 ------- 1 2.0 1.0 3 78
r 1.509547 0 3 tcp 1000 ------- 0 0.0 3.0 31 68
+ 1.509547 3 0 ack 40 ------- 0 3.0 0.0 31 79
- 1.509547 3 0 ack 40 ------- 0 3.0 0.0 31 79
r 1.512213 0 3 tcp 1000 ------- 0 0.0 3.0 32 69
+ 1.512213 3 0 ack 40 ------- 0 3.0 0.0 32 80
- 1.512213 3 0 ack 40 ------- 0 3.0 0.0 32 80
r 1.51488 0 3 tcp 1000 ------- 0 0.0 3.0 33 70
+ 1.51488 3 0 ack 40 ------- 0 3.0 0.0 33 81
- 1.51488 3 0 ack 40 ------- 0 3.0 0.0 33 81
r 1.517547 0 3 tcp 1000 ------- 0 0.0 3.0 34 71
+ 1.517547 3 0 ack 40 ------- 0 3.0 0.0 34 82
- 1.517547 3 0 ack 40 ------- 0 3.0 0.0 34 82
r 1.520213 0 3 tcp 1000 ------- 0 0.0 3.0 35 72
+ 1.520213 3 0 ack 40 ------- 0 3.0 0.0 35 83
- 1.520213 3 0 ack 40 ------- 0 3.0 0.0 35 83
r 1.52288 0 3 tcp 1000 ------- 0 0.0 3.0 36 73
+ 1.52288 3 0 ack 40 ------- 0 3.0 0.0 36 84
- 1.52288 3 0 ack 40 ------- 0 3.0 0.0 36 84
r 1.525547 0 3 tcp 1000 ------- 0 0.0 3.0 37 74
+ 1.525547 3 0 ack 40 ------- 0 3.0 0.0 37 85
- 1.525547 3 0 ack 40 ------- 0 3.0 0.0 37 85
r 1.528213 0 3 tcp 1000 ------- 0 0.0 3.0 38 75
+ 1.528213 3 0 ack 40 ------- 0 3.0 0.0 38 86
- 1.528213 3 0 ack 40 ------- 0 3.0 0.0 38 86
r 1.53088 0 3 tcp 1000 ------- 0 0.0 3.0 39 76
+ 1.53088 3 0 ack 40 ------- 0 3.0 0.0 39 87
- 1.53088 3 0 ack 40 ------- 0 3.0 0.0 39 87
r 1.684987 3 0 ack 40 ------- 0 3.0 0.0 30 77
+ 1.684987 0 3 tcp 1000 ------- 0 0.0 3.0 40 88
- 1.684987 0 3 tcp 1000 ------- 0 0.0 3.0 40 88
r 1.684987 2 1 ack 40 ------- 1 2.0 1.0 3 78
+ 1.684987 1 2 tcp 1000 ------- 1 1.0 2.0 4 89
- 1.684987 1 2 tcp 1000 ------- 1 1.0 2.0 4 89
r 1.687653 3 0 ack 40 ------- 0 3.0 0.0 31 79
+ 1.687653 0 3 tcp 1000 ------- 0 0.0 3.0 41 90
- 1.687653 0 3 tcp 1000 ------- 0 0.0 3.0 41 90
r 1.69032 3 0 ack 40 ------- 0 3.0 0.0 32 80
+ 1.69032 0 3 tcp 1000 ------- 0 0.0 3.0 42 91
- 1.69032 0 3 tcp 1000 ------- 0 0.0 3.0 42 91
r 1.692987 3 0 ack 40 ------- 0 3.0 0.0 33 81
+ 1.692987 0 3 tcp 1000 ------- 0 0.0 3.0 43 92
- 1.692987 0 3 tcp 1000 ------- 0 0.0 3.0 43 92
r 1.695653 3 0 ack 40 ------- 0 3.0 0.0 34 82
+ 1.695653 0 3 tcp 1000 ------- 0 0.0 3.0 44 93
- 1.695653 0 3 tcp 1000 ------- 0 0.0 3.0 44 93
r 1.69832 3 0 ack 40 ------- 0 3.0 0.0 35 83
+ 1.69832 0 3 tcp 1000 ------- 0 0.0 3.0 45 94
- 1.69832 0 3 tcp 1000 ------- 0 0.0 3.0 45 94
r 1.700987 3 0 ack 40 ------- 0 3.0 0.0 36 84
+ 1.700987 0 3 tcp 1000 ------- 0 0.0 3.0 46 95
- 1.700987 0 3 tcp 1000 ------- 0 0.0 3.0 46 95
r 1.703653 3 0 ack 40 ------- 0 3.0 0.0 37 85
+ 1.703653 0 3 tcp 1000 ------- 0 0.0 3.0 47 96
- 1.703653 0 3 tcp 1000 ------- 0 0.0 3.0 47 96
r 1.70632 3 0 ack 40 ------- 0 3.0 0.0 38 86
+ 1.70632 0 3 tcp 1000 ------- 0 0.0 3.0 48 97
- 1.70632 0 3 tcp 1000 ------- 0 0.0 3.0 48 97
r 1.708987 3 0 ack 40 ------- 0 3.0 0.0 39 87
+ 1.708987 0 3 tcp 1000 ------- 0 0.0 3.0 49 98
- 1.708987 0 3 tcp 1000 ------- 0 0.0 3.0 49 98
r 1.865653 0 3 tcp 1000 ------- 0 0.0 3.0 40 88
+ 1.865653 3 0 ack 40 ------- 0 3.0 0.0 40 99
- 1.865653 3 0 ack 40 ------- 0 3.0 0.0 40 99
r 1.865653 1 2 tcp 1000 ------- 1 1.0 2.0 4 89
+ 1.865653 2 1 ack 40 ------- 1 2.0 1.0 4 100
- 1.865653 2 1 ack 40 ------- 1 2.0 1.0 4 100
r 1.86832 0 3 tcp 1000 ------- 0 0.0 3.0 41 90
+ 1.86832 3 0 ack 40 ------- 0 3.0 0.0 41 101
- 1.86832 3 0 ack 40 ------- 0 3.0 0.0 41 101
r 1.870987 0 3 tcp 1000 ------- 0 0.0 3.0 42 91
+ 1.870987 3 0 ack 40 ------- 0 3.0 0.0 42 102
- 1.870987 3 0 ack 40 ------- 0 3.0 0.0 42 102
r 1.873653 0 3 tcp 1000 ------- 0 0.0 3.0 43 92
+ 1.873653 3 0 ack 40 ------- 0 3.0 0.0 43 103
- 1.873653 3 0 ack 40 ------- 0 3.0 0.0 43 103
r 1.87632 0 3 tcp 1000 ------- 0 0.0 3.0 44 93
+ 1.87632 3 0 ack 40 ------- 0 3.0 0.0 44 104
- 1.87632 3 0 ack 40 ------- 0 3.0 0.0 44 104
r 1.878987 0 3 tcp 1000 ------- 0 0.0 3.0 45 94
+ 1.878987 3 0 ack 40 ------- 0 3.0 0.0 45 105
- 1.878987 3 0 ack 40 ------- 0 3.0 0.0 45 105
r 1.881653 0 3 tcp 1000 ------- 0 0.0 3.0 46 95
+ 1.881653 3 0 ack 40 ------- 0 3.0 0.0 46 106
- 1.881653 3 0 ack 40 ------- 0 3.0 0.0 46 106
r 1.88432 0 3 tcp 1000 ------- 0 0.0 3.0 47 96
+ 1.88432 3 0 ack 40 ------- 0 3.0 0.0 47 107
- 1.88432 3 0 ack 40 ------- 0 3.0 0.0 47 107
r 1.886987 0 3 tcp 1000 ------- 0 0.0 3.0 48 97
+ 1.886987 3 0 ack 40 ------- 0 3.0 0.0 48 108
- 1.886987 3 0 ack 40 ------- 0 3.0 0.0 48 108
r 1.889653 0 3 tcp 1000 ------- 0 0.0 3.0 49 98
+ 1.889653 3 0 ack 40 ------- 0 3.0 0.0 49 109
- 1.889653 3 0 ack 40 ------- 0 3.0 0.0 49 109
r 2.04376 3 0 ack 40 ------- 0 3.0 0.0 40 99
+ 2.04376 0 3 tcp 1000 ------- 0 0.0 3.0 50 110
- 2.04376 0 3 tcp 1000 ------- 0 0.0 3.0 50 110
r 2.04376 2 1 ack 40 ------- 1 2.0 1.0 4 100
+ 2.04376 1 2 tcp 1000 ------- 1 1.0 2.0 5 111
- 2.04376 1 2 tcp 1000 ------- 1 1.0 2.0 5 111
r 2.046427 3 0 ack 40 ------- 0 3.0 0.0 41 101
+ 2.046427 0 3 tcp 1000 ------- 0 0.0 3.0 51 112
- 2.046427 0 3 tcp 1000 ------- 0 0.0 3.0 51 112
r 2.049093 3 0 ack 40 ------- 0 3.0 0.0 42 102
+ 2.049093 0 3 tcp 1000 ------- 0 0.0 3.0 52 113
- 2.049093 0 3 tcp 1000 ------- 0 0.0 3.0 52 113
r 2.05176 3 0 ack 40 ------- 0 3.0 0.0 43 103
+ 2.05176 0 3 tcp 1000 ------- 0 0.0 3.0 53 114
- 2.05176 0 3 tcp 1000 ------- 0 0.0 3.0 53 114
r 2.054427 3 0 ack 40 ------- 0 3.0 0.0 44 104
+ 2.054427 0 3 tcp 1000 ------- 0 0.0 3.0 54 115
- 2.054427 0 3 tcp 1000 ------- 0 0.0 3.0 54 115
r 2.057093 3 0 ack 40 ------- 0 3.0 0.0 45 105
+ 2.057093 0 3 tcp 1000 ------- 0 0.0 3.0 55 116
- 2.057093 0 3 tcp 1000 ------- 0 0.0 3.0 55 116
r 2.05976 3 0 ack 40 ------- 0 3.0 0.0 46 106
+ 2.05976 0 3 tcp 1000 ------- 0 0.0 3.0 56 117
- 2.05976 0 3 tcp 1000 ------- 0 0.0 3.0 56 117
r 2.062427 3 0 ack 40 ------- 0 3.0 0.0 47 107
+ 2.062427 0 3 tcp 1000 ------- 0 0.0 3.0 57 118
- 2.062427 0 3 tcp 1000 ------- 0 0.0 3.0 57 118
r 2.065093 3 0 ack 40 ------- 0 3.0 0.0 48 108
+ 2.065093 0 3 tcp 1000 ------- 0 0.0 3.0 58 119
- 2.065093 0 3 tcp 1000 ------- 0 0.0 3.0 58 119
r 2.06776 3 0 ack 40 ------- 0 3.0 0.0 49 109
+ 2.06776 0 3 tcp 1000 ------- 0 0.0 3.0 59 120
- 2.06776 0 3 tcp 1000 ------- 0 0.0 3.0 59 120
r 2.224427 0 3 tcp 1000 ------- 0 0.0 3.0 50 110
+ 2.224427 3 0 ack 40 ------- 0 3.0 0.0 50 121
- 2.224427 3 0 ack 40 ------- 0 3.0 0.0 50 121
r 2.224427 1 2 tcp 1000 ------- 1 1.0 2.0 5 111
+ 2.224427 2 1 ack 40 ------- 1 2.0 1.0 5 122
- 2.224427 2 1 ack 40 ------- 1 2.0 1.0 5 122
r 2.227093 0 3 tcp 1000 ------- 0 0.0 3.0 51 112
+ 2.227093 3 0 ack 40 ------- 0 3.0 0.0 51 123
- 2.227093 3 0 ack 40 ------- 0 3.0 0.0 51 123
r 2.22976 0 3 tcp 1000 ------- 0 0.0 3.0 52 113
+ 2.22976 3 0 ack 40 ------- 0 3.0 0.0 52 124
- 2.22976 3 0 ack 40 ------- 0 3.0 0.0 52 124
r 2.232427 0 3 tcp 1000 ------- 0 0.0 3.0 53 114
+ 2.232427 3 0 ack 40 ------- 0 3.0 0.0 53 125
- 2.232427 3 0 ack 40 ------- 0 3.0 0.0 53 125
r 2.235093 0 3 tcp 1000 ------- 0 0.0 3.0 54 115
+ 2.235093 3 0 ack 40 ------- 0 3.0 0.0 54 126
- 2.235093 3 0 ack 40 ------- 0 3.0 0.0 54 126
r 2.23776 0 3 tcp 1000 ------- 0 0.0 3.0 55 116
+ 2.23776 3 0 ack 40 ------- 0 3.0 0.0 55 127
- 2.23776 3 0 ack 40 ------- 0 3.0 0.0 55 127
r 2.240427 0 3 tcp 1000 ------- 0 0.0 3.0 56 117
+ 2.240427 3 0 ack 40 ------- 0 3.0 0.0 56 128
- 2.240427 3 0 ack 40 ------- 0 3.0 0.0 56 128
r 2.243093 0 3 tcp 1000 ------- 0 0.0 3.0 57 118
+ 2.243093 3 0 ack 40 ------- 0 3.0 0.0 57 129
- 2.243093 3 0 ack 40 ------- 0 3.0 0.0 57 129
r 2.24576 0 3 tcp 1000 ------- 0 0.0 3.0 58 119
+ 2.24576 3 0 ack 40 ------- 0 3.0 0.0 58 130
- 2.24576 3 0 ack 40 ------- 0 3.0 0.0 58 130
r 2.248427 0 3 tcp 1000 ------- 0 0.0 3.0 59 120
+ 2.248427 3 0 ack 40 ------- 0 3.0 0.0 59 131
- 2.248427 3 0 ack 40 ------- 0 3.0 0.0 59 131
r 2.402533 3 0 ack 40 ------- 0 3.0 0.0 50 121
+ 2.402533 0 3 tcp 1000 ------- 0 0.0 3.0 60 132
- 2.402533 0 3 tcp 1000 ------- 0 0.0 3.0 60 132
r 2.402533 2 1 ack 40 ------- 1 2.0 1.0 5 122
+ 2.402533 1 2 tcp 1000 ------- 1 1.0 2.0 6 133
- 2.402533 1 2 tcp 1000 ------- 1 1.0 2.0 6 133
r 2.4052 3 0 ack 40 ------- 0 3.0 0.0 51 123
+ 2.4052 0 3 tcp 1000 ------- 0 0.0 3.0 61 134
- 2.4052 0 3 tcp 1000 ------- 0 0.0 3.0 61 134
r 2.407867 3 0 ack 40 ------- 0 3.0 0.0 52 124
+ 2.407867 0 3 tcp 1000 ------- 0 0.0 3.0 62 135
- 2.407867 0 3 tcp 1000 ------- 0 0.0 3.0 62 135
r 2.410533 3 0 ack 40 ------- 0 3.0 0.0 53 125
+ 2.410533 0 3 tcp 1000 ------- 0 0.0 3.0 63 136
- 2.410533 0 3 tcp 1000 ------- 0 0.0 3.0 63 136
r 2.4132 3 0 ack 40 ------- 0 3.0 0.0 54 126
+ 2.4132 0 3 tcp 1000 ------- 0 0.0 3.0 64 137
- 2.4132 0 3 tcp 1000 ------- 0 0.0 3.0 64 137
r 2.415867 3 0 ack 40 ------- 0 3.0 0.0 55 127
+ 2.415867 0 3 tcp 1000 ------- 0 0.0 3.0 65 138
- 2.415867 0 3 tcp 1000 ------- 0 0.0 3.0 65 138
r 2.418533 3 0 ack 40 ------- 0 3.0 0.0 56 128
+ 2.418533 0 3 tcp 1000 ------- 0 0.0 3.0 66 139
- 2.418533 0 3 tcp 1000 ------- 0 0.0 3.0 66 139
r 2.4212 3 0 ack 40 ------- 0 3.0 0.0 57 129
+ 2.4212 0 3 tcp 1000 ------- 0 0.0 3.0 67 140
- 2.4212 0 3 tcp 1000 ------- 0 0.0 3.0 67 140
r 2.423867 3 0 ack 40 ------- 0 3.0 0.0 58 130
+ 2.423867 0 3 tcp 1000 ------- 0 0.0 3.0 68 141
- 2.423867 0 3 tcp 1000 ------- 0 0.0 3.0 68 141
r 2.426533 3 0 ack 40 ------- 0 3.0 0.0 59 131
+ 2.426533 0 3 tcp 1000 ------- 0 0.0 3.0 69 142
- 2.426533 0 3 tcp 1000 ------- 0 0.0 3.0 69 142
r 2.5832 0 3 tcp 1000 ------- 0 0.0 3.0 60 132
+ 2.5832 3 0 ack 40 ------- 0 3.0 0.0 60 143
- 2.5832 3 0 ack 40 ------- 0 3.0 0.0 60 143
r 2.5832 1 2 tcp 1000 ------- 1 1.0 2.0 6 133
+ 2.5832 2 1 ack 40 ------- 1 2.0 1.0 6 144
- 2.5832 2 1 ack 40 ------- 1 2.0 1.0 6 144
r 2.585867 0 3 tcp 1000 ------- 0 0.0 3.0 61 134
+ 2.585867 3 0 ack 40 ------- 0 3.0 0.0 61 145
- 2.585867 3 0 ack 40 ------- 0 3.0 0.0 61 145
r 2.588533 0 3 tcp 1000 ------- 0 0.0 3.0 62 135
+ 2.588533 3 0 ack 40 ------- 0 3.0 0.0 62 146
- 2.588533 3 0 ack 40 ------- 0 3.0 0.0 62 146
r 2.5912 0 3 tcp 1000 ------- 0 0.0 3.0 63 136
+ 2.5912 3 0 ack 40 ------- 0 3.0 0.0 63 147
- 2.5912 3 0 ack 40 ------- 0 3.0 0.0 63 147
r 2.593867 0 3 tcp 1000 ------- 0 0.0 3.0 64 137
+ 2.593867 3 0 ack 40 ------- 0 3.0 0.0 64 148
- 2.593867 3 0 ack 40 ------- 0 3.0 0.0 64 148
r 2.596533 0 3 tcp 1000 ------- 0 0.0 3.0 65 138
+ 2.596533 3 0 ack 40 ------- 0 3.0 0.0 65 149
- 2.596533 3 0 ack 40 ------- 0 3.0 0.0 65 149
r 2.5992 0 3 tcp 1000 ------- 0 0.0 3.0 66 139
+ 2.5992 3 0 ack 40 ------- 0 3.0 0.0 66 150
- 2.5992 3 0 ack 40 ------- 0 3.0 0.0 66 150
r 2.601867 0 3 tcp 1000 ------- 0 0.0 3.0 67 140
+ 2.601867 3 0 ack 40 ------- 0 3.0 0.0 67 151
- 2.601867 3 0 ack 40 ------- 0 3.0 0.0 67 151
r 2.604533 0 3 tcp 1000 ------- 0 0.0 3.0 68 141
+ 2.604533 3 0 ack 40 ------- 0 3.0 0.0 68 152
- 2.604533 3 0 ack 40 ------- 0 3.0 0.0 68 152
r 2.6072 0 3 tcp 1000 ------- 0 0.0 3.0 69 142
+ 2.6072 3 0 ack 40 ------- 0 3.0 0.0 69 153
- 2.6072 3 0 ack 40 ------- 0 3.0 0.0 69 153
r 2.761307 3 0 ack 40 ------- 0 3.0 0.0 60 143
+ 2.761307 0 3 tcp 1000 ------- 0 0.0 3.0 70 154
- 2.761307 0 3 tcp 1000 ------- 0 0.0 3.0 70 154
r 2.761307 2 1 ack 40 ------- 1 2.0 1.0 6 144
+ 2.761307 1 2 tcp 1000 ------- 1 1.0 2.0 7 155
- 2.761307 1 2 tcp 1000 ------- 1 1.0 2.0 7 155
r 2.763973 3 0 ack 40 ------- 0 3.0 0.0 61 145
+ 2.763973 0 3 tcp 1000 ------- 0 0.0 3.0 71 156
- 2.763973 0 3 tcp 1000 ------- 0 0.0 3.0 71 156
r 2.76664 3 0 ack 40 ------- 0 3.0 0.0 62 146
+ 2.76664 0 3 tcp 1000 ------- 0 0.0 3.0 72 157
- 2.76664 0 3 tcp 1000 ------- 0 0.0 3.0 72 157
r 2.769307 3 0 ack 40 ------- 0 3.0 0.0 63 147
+ 2.769307 0 3 tcp 1000 ------- 0 0.0 3.0 73 158
- 2.769307 0 3 tcp 1000 ------- 0 0.0 3.0 73 158
r 2.771973 3 0 ack 40 ------- 0 3.0 0.0 64 148
+ 2.771973 0 3 tcp 1000 ------- 0 0.0 3.0 74 159
- 2.771973 0 3 tcp 1000 ------- 0 0.0 3.0 74 159
r 2.77464 3 0 ack 40 ------- 0 3.0 0.0 65 149
+ 2.77464 0 3 tcp 1000 ------- 0 0.0 3.0 75 160
- 2.77464 0 3 tcp 1000 ------- 0 0.0 3.0 75 160
r 2.777307 3 0 ack 40 ------- 0 3.0 0.0 66 150
+ 2.777307 0 3 tcp 1000 ------- 0 0.0 3.0 76 161
- 2.777307 0 3 tcp 1000 ------- 0 0.0 3.0 76 161
r 2.779973 3 0 ack 40 ------- 0 3.0 0.0 67 151
+ 2.779973 0 3 tcp 1000 ------- 0 0.0 3.0 77 162
- 2.779973 0 3 tcp 1000 ------- 0 0.0 3.0 77 162
r 2.78264 3 0 ack 40 ------- 0 3.0 0.0 68 152
+ 2.78264 0 3 tcp 1000 ------- 0 0.0 3.0 78 163
- 2.78264 0 3 tcp 1000 ------- 0 0.0 3.0 78 163
r 2.785307 3 0 ack 40 ------- 0 3.0 0.0 69 153
+ 2.785307 0 3 tcp 1000 ------- 0 0.0 3.0 79 164
- 2.785307 0 3 tcp 1000 ------- 0 0.0 3.0 79 164
r 2.941973 0 3 tcp 1000 ------- 0 0.0 3.0 70 154
+ 2.941973 3 0 ack 40 ------- 0 3.0 0.0 70 165
- 2.941973 3 0 ack 40 ------- 0 3.0 0.0 70 165
r 2.941973 1 2 tcp 1000 ------- 1 1.0 2.0 7 155
+ 2.941973 2 1 ack 40 ------- 1 2.0 1.0 7 166
- 2.941973 2 1 ack 40 ------- 1 2.0 1.0 7 166
r 2.94464 0 3 tcp 1000 ------- 0 0.0 3.0 71 156
+ 2.94464 3 0 ack 40 ------- 0 3.0 0.0 71 167
- 2.94464 3 0 ack 40 ------- 0 3.0 0.0 71 167
r 2.947307 0 3 tcp 1000 ------- 0 0.0 3.0 72 157
+ 2.947307 3 0 ack 40 ------- 0 3.0 0.0 72 168
- 2.947307 3 0 ack 40 ------- 0 3.0 0.0 72 168
r 2.949973 0 3 tcp 1000 ------- 0 0.0 3.0 73 158
+ 2.949973 3 0 ack 40 ------- 0 3.0 0.0 73 169
- 2.949973 3 0 ack 40 ------- 0 3.0 0.0 73 169
r 2.95264 0 3 tcp 1000 ------- 0 0.0 3.0 74 159
+ 2.95264 3 0 ack 40 ------- 0 3.0 0.0 74 170
- 2.95264 3 0 ack 40 ------- 0 3.0 0.0 74 170
r 2.955307 0 3 tcp 1000 ------- 0 0.0 3.0 75 160
+ 2.955307 3 0 ack 40 ------- 0 3.0 0.0 75 171
- 2.955307 3 0 ack 40 ------- 0 3.0 0.0 75 171
r 2.957973 0 3 tcp 1000 ------- 0 0.0 3.0 76 161
+ 2.957973 3 0 ack 40 ------- 0 3.0 0.0 76 172
- 2.957973 3 0 ack 40 ------- 0 3.0 0.0 76 172
r 2.96064 0 3 tcp 1000 ------- 0 0.0 3.0 77 162
+ 2.96064 3 0 ack 40 ------- 0 3.0 0.0 77 173
- 2.96064 3 0 ack 40 ------- 0 3.0 0.0 77 173
r 2.963307 0 3 tcp 1000 ------- 0 0.0 3.0 78 163
+ 2.963307 3 0 ack 40 ------- 0 3.0 0.0 78 174
- 2.963307 3 0 ack 40 ------- 0 3.0 0.0 78 174
r 2.965973 0 3 tcp 1000 ------- 0 0.0 3.0 79 164
+ 2.965973 3 0 ack 40 ------- 0 3.0 0.0 79 175
- 2.965973 3 0 ack 40 ------- 0 3.0 0.0 79 175
r 3.12008 3 0 ack 40 ------- 0 3.0 0.0 70 165
+ 3.12008 0 3 tcp 1000 ------- 0 0.0 3.0 80 176
- 3.12008 0 3 tcp 1000 ------- 0 0.0 3.0 80 176
r 3.12008 2 1 ack 40 ------- 1 2.0 1.0 7 166
+ 3.12008 1 2 tcp 1000 ------- 1 1.0 2.0 8 177
- 3.12008 1 2 tcp 1000 ------- 1 1.0 2.0 8 177
r 3.122747 3 0 ack 40 ------- 0 3.0 0.0 71 167
+ 3.122747 0 3 tcp 1000 ------- 0 0.0 3.0 81 178
- 3.122747 0 3 tcp 1000 ------- 0 0.0 3.0 81 178
r 3.125413 3 0 ack 40 ------- 0 3.0 0.0 72 168
+ 3.125413 0 3 tcp 1000 ------- 0 0.0 3.0 82 179
- 3.125413 0 3 tcp 1000 ------- 0 0.0 3.0 82 179
r 3.12808 3 0 ack 40 ------- 0 3.0 0.0 73 169
+ 3.12808 0 3 tcp 1000 ------- 0 0.0 3.0 83 180
- 3.12808 0 3 tcp 1000 ------- 0 0.0 3.0 83 180
r 3.130747 3 0 ack 40 ------- 0 3.0 0.0 74 170
+ 3.130747 0 3 tcp 1000 ------- 0 0.0 3.0 84 181
- 3.130747 0 3 tcp 1000 ------- 0 0.0 3.0 84 181
r 3.133413 3 0 ack 40 ------- 0 3.0 0.0 75 171
+ 3.133413 0 3 tcp 1000 ------- 0 0.0 3.0 85 182
- 3.133413 0 3 tcp 1000 ------- 0 0.0 3.0 85 182
r 3.13608 3 0 ack 40 ------- 0 3.0 0.0 76 172
+ 3.13608 0 3 tcp 1000 ------- 0 0.0 3.0 86 183
- 3.13608 0 3 tcp 1000 ------- 0 0.0 3.0 86 183
r 3.138747 3 0 ack 40 ------- 0 3.0 0.0 77 173
+ 3.138747 0 3 tcp 1000 ------- 0 0.0 3.0 87 184
- 3.138747 0 3 tcp 1000 ------- 0 0.0 3.0 87 184
r 3.141413 3 0 ack 40 ------- 0 3.0 0.0 78 174
+ 3.141413 0 3 tcp 1000 ------- 0 0.0 3.0 88 185
- 3.141413 0 3 tcp 1000 ------- 0 0.0 3.0 88 185
r 3.14408 3 0 ack 40 ------- 0 3.0 0.0 79 175
+ 3.14408 0 3 tcp 1000 ------- 0 0.0 3.0 89 186
- 3.14408 0 3 tcp 1000 ------- 0 0.0 3.0 89 186
r 3.300747 0 3 tcp 1000 ------- 0 0.0 3.0 80 176
+ 3.300747 3 0 ack 40 ------- 0 3.0 0.0 80 187
- 3.300747 3 0 ack 40 ------- 0 3.0 0.0 80 187
r 3.300747 1 2 tcp 1000 ------- 1 1.0 2.0 8 177
+ 3.300747 2 1 ack 40 ------- 1 2.0 1.0 8 188
- 3.300747 2 1 ack 40 ------- 1 2.0 1.0 8 188
r 3.303413 0 3 tcp 1000 ------- 0 0.0 3.0 81 178
+ 3.303413 3 0 ack 40 ------- 0 3.0 0.0 81 189
- 3.303413 3 0 ack 40 ------- 0 3.0 0.0 81 189
r 3.30608 0 3 tcp 1000 ------- 0 0.0 3.0 82 179
+ 3.30608 3 0 ack 40 ------- 0 3.0 0.0 82 190
- 3.30608 3 0 ack 40 ------- 0 3.0 0.0 82 190
r 3.308747 0 3 tcp 1000 ------- 0 0.0 3.0 83 180
+ 3.308747 3 0 ack 40 ------- 0 3.0 0.0 83 191
- 3.308747 3 0 ack 40 ------- 0 3.0 0.0 83 191
r 3.311413 0 3 tcp 1000 ------- 0 0.0 3.0 84 181
+ 3.311413 3 0 ack 40 ------- 0 3.0 0.0 84 192
- 3.311413 3 0 ack 40 ------- 0 3.0 0.0 84 192
r 3.31408 0 3 tcp 1000 ------- 0 0.0 3.0 85 182
+ 3.31408 3 0 ack 40 ------- 0 3.0 0.0 85 193
- 3.31408 3 0 ack 40 ------- 0 3.0 0.0 85 193
r 3.316747 0 3 tcp 1000 ------- 0 0.0 3.0 86 183
+ 3.316747 3 0 ack 40 ------- 0 3.0 0.0 86 194
- 3.316747 3 0 ack 40 ------- 0 3.0 0.0 86 194
r 3.319413 0 3 tcp 1000 ------- 0 0.0 3.0 87 184
+ 3.319413 3 0 ack 40 ------- 0 3.0 0.0 87 195
- 3.319413 3 0 ack 40 ------- 0 3.0 0.0 87 195
r 3.32208 0 3 tcp 1000 ------- 0 0.0 3.0 88 185
+ 3.32208 3 0 ack 40 ------- 0 3.0 0.0 88 196
- 3.32208 3 0 ack 40 ------- 0 3.0 0.0 88 196
r 3.324747 0 3 tcp 1000 ------- 0 0.0 3.0 89 186
+ 3.324747 3 0 ack 40 ------- 0 3.0 0.0 89 197
- 3.324747 3 0 ack 40 ------- 0 3.0 0.0 89 197
r 3.478853 3 0 ack 40 ------- 0 3.0 0.0 80 187
+ 3.478853 0 3 tcp 1000 ------- 0 0.0 3.0 90 198
- 3.478853 0 3 tcp 1000 ------- 0 0.0 3.0 90 198
r 3.478853 2 1 ack 40 ------- 1 2.0 1.0 8 188
+ 3.478853 1 2 tcp 1000 ------- 1 1.0 2.0 9 199
- 3.478853 1 2 tcp 1000 ------- 1 1.0 2.0 9 199
r 3.48152 3 0 ack 40 ------- 0 3.0 0.0 81 189
+ 3.48152 0 3 tcp 1000 ------- 0 0.0 3.0 91 200
- 3.48152 0 3 tcp 1000 ------- 0 0.0 3.0 91 200
r 3.484187 3 0 ack 40 ------- 0 3.0 0.0 82 190
+ 3.484187 0 3 tcp 1000 ------- 0 0.0 3.0 92 201
- 3.484187 0 3 tcp 1000 ------- 0 0.0 3.0 92 201
r 3.486853 3 0 ack 40 ------- 0 3.0 0.0 83 191
+ 3.486853 0 3 tcp 1000 ------- 0 0.0 3.0 93 202
- 3.486853 0 3 tcp 1000 ------- 0 0.0 3.0 93 202
r 3.48952 3 0 ack 40 ------- 0 3.0 0.0 84 192
+ 3.48952 0 3 tcp 1000 ------- 0 0.0 3.0 94 203
- 3.48952 0 3 tcp 1000 ------- 0 0.0 3.0 94 203
r 3.492187 3 0 ack 40 ------- 0 3.0 0.0 85 193
+ 3.492187 0 3 tcp 1000 ------- 0 0.0 3.0 95 204
- 3.492187 0 3 tcp 1000 ------- 0 0.0 3.0 95 204
r 3.494853 3 0 ack 40 ------- 0 3.0 0.0 86 194
+ 3.494853 0 3 tcp 1000 ------- 0 0.0 3.0 96 205
- 3.494853 0 3 tcp 1000 ------- 0 0.0 3.0 96 205
r 3.49752 3 0 ack 40 ------- 0 3.0 0.0 87 195
+ 3.49752 0 3 tcp 1000 ------- 0 0.0 3.0 97 206
- 3.49752 0 3 tcp 1000 ------- 0 0.0 3.0 97 206
r 3.500187 3 0 ack 40 ------- 0 3.0 0.0 88 196
+ 3.500187 0 3 tcp 1000 ------- 0 0.0 3.0 98 207
- 3.500187 0 3 tcp 1000 ------- 0 0.0 3.0 98 207
r 3.502853 3 0 ack 40 ------- 0 3.0 0.0 89 197
+ 3.502853 0 3 tcp 1000 ------- 0 0.0 3.0 99 208
- 3.502853 0 3 tcp 1000 ------- 0 0.0 3.0 99 208
r 3.65952 0 3 tcp 1000 ------- 0 0.0 3.0 90 198
+ 3.65952 3 0 ack 40 ------- 0 3.0 0.0 90 209
- 3.65952 3 0 ack 40 ------- 0 3.0 0.0 90 209
r 3.65952 1 2 tcp 1000 ------- 1 1.0 2.0 9 199
+ 3.65952 2 1 ack 40 ------- 1 2.0 1.0 9 210
- 3.65952 2 1 ack 40 ------- 1 2.0 1.0 9 210
r 3.662187 0 3 tcp 1000 ------- 0 0.0 3.0 91 200
+ 3.662187 3 0 ack 40 ------- 0 3.0 0.0 91 211
- 3.662187 3 0 ack 40 ------- 0 3.0 0.0 91 211
r 3.664853 0 3 tcp 1000 ------- 0 0.0 3.0 92 201
+ 3.664853 3 0 ack 40 ------- 0 3.0 0.0 92 212
- 3.664853 3 0 ack 40 ------- 0 3.0 0.0 92 212
r 3.66752 0 3 tcp 1000 ------- 0 0.0 3.0 93 202
+ 3.66752 3 0 ack 40 ------- 0 3.0 0.0 93 213
- 3.66752 3 0 ack 40 ------- 0 3.0 0.0 93 213
r 3.670187 0 3 tcp 1000 ------- 0 0.0 3.0 94 203
+ 3.670187 3 0 ack 40 ------- 0 3.0 0.0 94 214
- 3.670187 3 0 ack 40 ------- 0 3.0 0.0 94 214
r 3.672853 0 3 tcp 1000 ------- 0 0.0 3.0 95 204
+ 3.672853 3 0 ack 40 ------- 0 3.0 0.0 95 215
- 3.672853 3 0 ack 40 ------- 0 3.0 0.0 95 215
r 3.67552 0 3 tcp 1000 ------- 0 0.0 3.0 96 205
+ 3.67552 3 0 ack 40 ------- 0 3.0 0.0 96 216
- 3.67552 3 0 ack 40 ------- 0 3.0 0.0 96 216
r 3.678187 0 3 tcp 1000 ------- 0 0.0 3.0 97 206