V -t * -v 1.0a5 -a 0
A -t * -n 1 -p 0 -o 0x7fffffff -c 30 -a 1
A -t * -h 1 -m 1073741823 -s 0
c -t * -i 0 -n blue
c -t * -i 1 -n orange
n -t * -a 0 -s 0 -S UP -v circle -c black -i black
n -t * -a 1 -s 1 -S UP -v circle -c black -i black
n -t * -a 2 -s 2 -S UP -v circle -c black -i black
n -t * -a 3 -s 3 -S UP -v circle -c black -i black
l -t * -s 0 -d 1 -S UP -r 3000000 -D 0.048000000000000001 -c black -o right
l -t * -s 1 -d 2 -S UP -r 3000000 -D 0.048000000000000001 -c black -o down
l -t * -s 2 -d 3 -S UP -r 3000000 -D 0.048000000000000001 -c black -o left
l -t * -s 3 -d 0 -S UP -r 3000000 -D 0.096000000000000002 -c black -o up
n -t 0 -s 0 -S DLABEL -l "GBN_sender" -L ""
n -t 0 -s 3 -S DLABEL -l "GBN_receiver" -L ""
n -t 0 -s 1 -S DLABEL -l "SW_sender" -L ""
n -t 0 -s 2 -S DLABEL -l "SW_receiver" -L ""
+ -t 0.25 -s 0 -d 3 -p tcp -e 960 -c 0 -i 0 -a 0 -x {0.0 3.0 0 ------- null}
- -t 0.25 -s 0 -d 3 -p tcp -e 960 -c 0 -i 0 -a 0 -x {0.0 3.0 0 ------- null}
h -t 0.25 -s 0 -d 3 -p tcp -e 960 -c 0 -i 0 -a 0 -x {0.0 3.0 -1 ------- null}
+ -t 0.25 -s 0 -d 3 -p tcp -e 1000 -c 0 -i 1 -a 0 -x {0.0 3.0 1 ------- null}
+ -t 0.25 -s 0 -d 3 -p tcp -e 1000 -c 0 -i 2 -a 0 -x {0.0 3.0 2 ------- null}
+ -t 0.25 -s 0 -d 3 -p tcp -e 1000 -c 0 -i 3 -a 0 -x {0.0 3.0 3 ------- null}
+ -t 0.25 -s 0 -d 3 -p tcp -e 1000 -c 0 -i 4 -a 0 -x {0.0 3.0 4 ------- null}
+ -t 0.25 -s 0 -d 3 -p tcp -e 1000 -c 0 -i 5 -a 0 -x {0.0 3.0 5 ------- null}
+ -t 0.25 -s 0 -d 3 -p tcp -e 1000 -c 0 -i 6 -a 0 -x {0.0 3.0 6 ------- null}
+ -t 0.25 -s 0 -d 3 -p tcp -e 1000 -c 0 -i 7 -a 0 -x {0.0 3.0 7 ------- null}
+ -t 0.25 -s 0 -d 3 -p tcp -e 1000 -c 0 -i 8 -a 0 -x {0.0 3.0 8 ------- null}
+ -t 0.25 -s 0 -d 3 -p tcp -e 1000 -c 0 -i 9 -a 0 -x {0.0 3.0 9 ------- null}
+ -t 0.25 -s 0 -d 3 -p tcp -e 1000 -c 0 -i 10 -a 0 -x {0.0 3.0 10 ------- null}
+ -t 0.25 -s 0 -d 3 -p tcp -e 1000 -c 0 -i 11 -a 0 -x {0.0 3.0 11 ------- null}
+ -t 0.25 -s 0 -d 3 -p tcp -e 1000 -c 0 -i 12 -a 0 -x {0.0 3.0 12 ------- null}
+ -t 0.25 -s 0 -d 3 -p tcp -e 1000 -c 0 -i 13 -a 0 -x {0.0 3.0 13 ------- null}
+ -t 0.25 -s 0 -d 3 -p tcp -e 1000 -c 0 -i 14 -a 0 -x {0.0 3.0 14 ------- null}
+ -t 0.25 -s 0 -d 3 -p tcp -e 1000 -c 0 -i 15 -a 0 -x {0.0 3.0 15 ------- null}
+ -t 0.25 -s 0 -d 3 -p tcp -e 1000 -c 0 -i 16 -a 0 -x {0.0 3.0 16 ------- null}
+ -t 0.25 -s 0 -d 3 -p tcp -e 1000 -c 0 -i 17 -a 0 -x {0.0 3.0 17 ------- null}
+ -t 0.25 -s 0 -d 3 -p tcp -e 1000 -c 0 -i 18 -a 0 -x {0.0 3.0 18 ------- null}
+ -t 0.25 -s 0 -d 3 -p tcp -e 1000 -c 0 -i 19 -a 0 -x {0.0 3.0 19 ------- null}
+ -t 0.25 -s 1 -d 2 -p tcp -e 960 -c 1 -i 20 -a 1 -x {1.0 2.0 0 ------- null}
- -t 0.25 -s 1 -d 2 -p tcp -e 960 -c 1 -i 20 -a 1 -x {1.0 2.0 0 ------- null}
h -t 0.25 -s 1 -d 2 -p tcp -e 960 -c 1 -i 20 -a 1 -x {1.0 2.0 -1 ------- null}
- -t 0.25256 -s 0 -d 3 -p tcp -e 1000 -c 0 -i 1 -a 0 -x {0.0 3.0 1 ------- null}
h -t 0.25256 -s 0 -d 3 -p tcp -e 1000 -c 0 -i 1 -a 0 -x {0.0 3.0 -1 ------- null}
- -t 0.255226666666667 -s 0 -d 3 -p tcp -e 1000 -c 0 -i 2 -a 0 -x {0.0 3.0 2 ------- null}
h -t 0.255226666666667 -s 0 -d 3 -p tcp -e 1000 -c 0 -i 2 -a 0 -x {0.0 3.0 -1 ------- null}
- -t 0.257893333333333 -s 0 -d 3 -p tcp -e 1000 -c 0 -i 3 -a 0 -x {0.0 3.0 3 ------- null}
h -t 0.257893333333333 -s 0 -d 3 -p tcp -e 1000 -c 0 -i 3 -a 0 -x {0.0 3.0 -1 ------- null}
- -t 0.26056 -s 0 -d 3 -p tcp -e 1000 -c 0 -i 4 -a 0 -x {0.0 3.0 4 ------- null}
h -t 0.26056 -s 0 -d 3 -p tcp -e 1000 -c 0 -i 4 -a 0 -x {0.0 3.0 -1 ------- null}
- -t 0.263226666666667 -s 0 -d 3 -p tcp -e 1000 -c 0 -i 5 -a 0 -x {0.0 3.0 5 ------- null}
h -t 0.263226666666667 -s 0 -d 3 -p tcp -e 1000 -c 0 -i 5 -a 0 -x {0.0 3.0 -1 ------- null}
- -t 0.265893333333333 -s 0 -d 3 -p tcp -e 1000 -c 0 -i 6 -a 0 -x {0.0 3.0 6 ------- null}
h -t 0.265893333333333 -s 0 -d 3 -p tcp -e 1000 -c 0 -i 6 -a 0 -x {0.0 3.0 -1 ------- null}
- -t 0.26856 -s 0 -d 3 -p tcp -e 1000 -c 0 -i 7 -a 0 -x {0.0 3.0 7 ------- null}
h -t 0.26856 -s 0 -d 3 -p tcp -e 1000 -c 0 -i 7 -a 0 -x {0.0 3.0 -1 ------- null}
- -t 0.271226666666667 -s 0 -d 3 -p tcp -e 1000 -c 0 -i 8 -a 0 -x {0.0 3.0 8 ------- null}
h -t 0.271226666666667 -s 0 -d 3 -p tcp -e 1000 -c 0 -i 8 -a 0 -x {0.0 3.0 -1 ------- null}
- -t 0.273893333333333 -s 0 -d 3 -p tcp -e 1000 -c 0 -i 9 -a 0 -x {0.0 3.0 9 ------- null}
h -t 0.273893333333333 -s 0 -d 3 -p tcp -e 1000 -c 0 -i 9 -a 0 -x {0.0 3.0 -1 ------- null}
- -t 0.27656 -s 0 -d 3 -p tcp -e 1000 -c 0 -i 10 -a 0 -x {0.0 3.0 10 ------- null}
h -t 0.27656 -s 0 -d 3 -p tcp -e 1000 -c 0 -i 10 -a 0 -x {0.0 3.0 -1 ------- null}
- -t 0.279226666666667 -s 0 -d 3 -p tcp -e 1000 -c 0 -i 11 -a 0 -x {0.0 3.0 11 ------- null}
h -t 0.279226666666667 -s 0 -d 3 -p tcp -e 1000 -c 0 -i 11 -a 0 -x {0.0 3.0 -1 ------- null}
- -t 0.281893333333333 -s 0 -d 3 -p tcp -e 1000 -c 0 -i 12 -a 0 -x {0.0 3.0 12 ------- null}
h -t 0.281893333333333 -s 0 -d 3 -p tcp -e 1000 -c 0 -i 12 -a 0 -x {0.0 3.0 -1 ------- null}
- -t 0.28456 -s 0 -d 3 -p tcp -e 1000 -c 0 -i 13 -a 0 -x {0.0 3.0 13 ------- null}
h -t 0.28456 -s 0 -d 3 -p tcp -e 1000 -c 0 -i 13 -a 0 -x {0.0 3.0 -1 ------- null}
- -t 0.287226666666666 -s 0 -d 3 -p tcp -e 1000 -c 0 -i 14 -a 0 -x {0.0 3.0 14 ------- null}
h -t 0.287226666666666 -s 0 -d 3 -p tcp -e 1000 -c 0 -i 14 -a 0 -x {0.0 3.0 -1 ------- null}
- -t 0.289893333333333 -s 0 -d 3 -p tcp -e 1000 -c 0 -i 15 -a 0 -x {0.0 3.0 15 ------- null}
h -t 0.289893333333333 -s 0 -d 3 -p tcp -e 1000 -c 0 -i 15 -a 0 -x {0.0 3.0 -1 ------- null}
- -t 0.29256 -s 0 -d 3 -p tcp -e 1000 -c 0 -i 16 -a 0 -x {0.0 3.0 16 ------- null}
h -t 0.29256 -s 0 -d 3 -p tcp -e 1000 -c 0 -i 16 -a 0 -x {0.0 3.0 -1 ------- null}
- -t 0.295226666666666 -s 0 -d 3 -p tcp -e 1000 -c 0 -i 17 -a 0 -x {0.0 3.0 17 ------- null}
h -t 0.295226666666666 -s 0 -d 3 -p tcp -e 1000 -c 0 -i 17 -a 0 -x {0.0 3.0 -1 ------- null}
- -t 0.297893333333333 -s 0 -d 3 -p tcp -e 1000 -c 0 -i 18 -a 0 -x {0.0 3.0 18 ------- null}
h -t 0.297893333333333 -s 0 -d 3 -p tcp -e 1000 -c 0 -i 18 -a 0 -x {0.0 3.0 -1 ------- null}
- -t 0.30056 -s 0 -d 3 -p tcp -e 1000 -c 0 -i 19 -a 0 -x {0.0 3.0 19 ------- null}
h -t 0.30056 -s 0 -d 3 -p tcp -e 1000 -c 0 -i 19 -a 0 -x {0.0 3.0 -1 ------- null}
r -t 0.30056 -s 1 -d 2 -p tcp -e 960 -c 1 -i 20 -a 1 -x {1.0 2.0 0 ------- null}
+ -t 0.30056 -s 2 -d 1 -p ack -e 40 -c 1 -i 21 -a 1 -x {2.0 1.0 0 ------- null}
- -t 0.30056 -s 2 -d 1 -p ack -e 40 -c 1 -i 21 -a 1 -x {2.0 1.0 0 ------- null}
h -t 0.30056 -s 2 -d 1 -p ack -e 40 -c 1 -i 21 -a 1 -x {2.0 1.0 -1 ------- null}
r -t 0.34856 -s 0 -d 3 -p tcp -e 960 -c 0 -i 0 -a 0 -x {0.0 3.0 0 ------- null}
+ -t 0.34856 -s 3 -d 0 -p ack -e 40 -c 0 -i 22 -a 0 -x {3.0 0.0 0 ------- null}
- -t 0.34856 -s 3 -d 0 -p ack -e 40 -c 0 -i 22 -a 0 -x {3.0 0.0 0 ------- null}
h -t 0.34856 -s 3 -d 0 -p ack -e 40 -c 0 -i 22 -a 0 -x {3.0 0.0 -1 ------- null}
r -t 0.348666666666667 -s 2 -d 1 -p ack -e 40 -c 1 -i 21 -a 1 -x {2.0 1.0 0 ------- null}
+ -t 0.348666666666667 -s 1 -d 2 -p tcp -e 1000 -c 1 -i 23 -a 1 -x {1.0 2.0 1 ------- null}
- -t 0.348666666666667 -s 1 -d 2 -p tcp -e 1000 -c 1 -i 23 -a 1 -x {1.0 2.0 1 ------- null}
h -t 0.348666666666667 -s 1 -d 2 -p tcp -e 1000 -c 1 -i 23 -a 1 -x {1.0 2.0 -1 ------- null}
r -t 0.351226666666667 -s 0 -d 3 -p tcp -e 1000 -c 0 -i 1 -a 0 -x {0.0 3.0 1 ------- null}
+ -t 0.351226666666667 -s 3 -d 0 -p ack -e 40 -c 0 -i 24 -a 0 -x {3.0 0.0 1 ------- null}
- -t 0.351226666666667 -s 3 -d 0 -p ack -e 40 -c 0 -i 24 -a 0 -x {3.0 0.0 1 ------- null}
h -t 0.351226666666667 -s 3 -d 0 -p ack -e 40 -c 0 -i 24 -a 0 -x {3.0 0.0 -1 ------- null}
r -t 0.353893333333333 -s 0 -d 3 -p tcp -e 1000 -c 0 -i 2 -a 0 -x {0.0 3.0 2 ------- null}
+ -t 0.353893333333333 -s 3 -d 0 -p ack -e 40 -c 0 -i 25 -a 0 -x {3.0 0.0 2 ------- null}
- -t 0.353893333333333 -s 3 -d 0 -p ack -e 40 -c 0 -i 25 -a 0 -x {3.0 0.0 2 ------- null}
h -t 0.353893333333333 -s 3 -d 0 -p ack -e 40 -c 0 -i 25 -a 0 -x {3.0 0.0 -1 ------- null}
r -t 0.35656 -s 0 -d 3 -p tcp -e 1000 -c 0 -i 3 -a 0 -x {0.0 3.0 3 ------- null}
+ -t 0.35656 -s 3 -d 0 -p ack -e 40 -c 0 -i 26 -a 0 -x {3.0 0.0 3 ------- null}
- -t 0.35656 -s 3 -d 0 -p ack -e 40 -c 0 -i 26 -a 0 -x {3.0 0.0 3 ------- null}
h -t 0.35656 -s 3 -d 0 -p ack -e 40 -c 0 -i 26 -a 0 -x {3.0 0.0 -1 ------- null}
r -t 0.359226666666667 -s 0 -d 3 -p tcp -e 1000 -c 0 -i 4 -a 0 -x {0.0 3.0 4 ------- null}
+ -t 0.359226666666667 -s 3 -d 0 -p ack -e 40 -c 0 -i 27 -a 0 -x {3.0 0.0 4 ------- null}
- -t 0.359226666666667 -s 3 -d 0 -p ack -e 40 -c 0 -i 27 -a 0 -x {3.0 0.0 4 ------- null}
h -t 0.359226666666667 -s 3 -d 0 -p ack -e 40 -c 0 -i 27 -a 0 -x {3.0 0.0 -1 ------- null}
r -t 0.361893333333333 -s 0 -d 3 -p tcp -e 1000 -c 0 -i 5 -a 0 -x {0.0 3.0 5 ------- null}
+ -t 0.361893333333333 -s 3 -d 0 -p ack -e 40 -c 0 -i 28 -a 0 -x {3.0 0.0 5 ------- null}
- -t 0.361893333333333 -s 3 -d 0 -p ack -e 40 -c 0 -i 28 -a 0 -x {3.0 0.0 5 ------- null}
h -t 0.361893333333333 -s 3 -d 0 -p ack -e 40 -c 0 -i 28 -a 0 -x {3.0 0.0 -1 ------- null}
r -t 0.36456 -s 0 -d 3 -p tcp -e 1000 -c 0 -i 6 -a 0 -x {0.0 3.0 6 ------- null}
+ -t 0.36456 -s 3 -d 0 -p ack -e 40 -c 0 -i 29 -a 0 -x {3.0 0.0 6 ------- null}
- -t 0.36456 -s 3 -d 0 -p ack -e 40 -c 0 -i 29 -a 0 -x {3.0 0.0 6 ------- null}
h -t 0.36456 -s 3 -d 0 -p ack -e 40 -c 0 -i 29 -a 0 -x {3.0 0.0 -1 ------- null}
r -t 0.367226666666667 -s 0 -d 3 -p tcp -e 1000 -c 0 -i 7 -a 0 -x {0.0 3.0 7 ------- null}
+ -t 0.367226666666667 -s 3 -d 0 -p ack -e 40 -c 0 -i 30 -a 0 -x {3.0 0.0 7 ------- null}
- -t 0.367226666666667 -s 3 -d 0 -p ack -e 40 -c 0 -i 30 -a 0 -x {3.0 0.0 7 ------- null}
h -t 0.367226666666667 -s 3 -d 0 -p ack -e 40 -c 0 -i 30 -a 0 -x {3.0 0.0 -1 ------- null}
r -t 0.369893333333333 -s 0 -d 3 -p tcp -e 1000 -c 0 -i 8 -a 0 -x {0.0 3.0 8 ------- null}
+ -t 0.369893333333333 -s 3 -d 0 -p ack -e 40 -c 0 -i 31 -a 0 -x {3.0 0.0 8 ------- null}
- -t 0.369893333333333 -s 3 -d 0 -p ack -e 40 -c 0 -i 31 -a 0 -x {3.0 0.0 8 ------- null}
h -t 0.369893333333333 -s 3 -d 0 -p ack -e 40 -c 0 -i 31 -a 0 -x {3.0 0.0 -1 ------- null}
r -t 0.37256 -s 0 -d 3 -p tcp -e 1000 -c 0 -i 9 -a 0 -x {0.0 3.0 9 ------- null}
+ -t 0.37256 -s 3 -d 0 -p ack -e 40 -c 0 -i 32 -a 0 -x {3.0 0.0 9 ------- null}
- -t 0.37256 -s 3 -d 0 -p ack -e 40 -c 0 -i 32 -a 0 -x {3.0 0.0 9 ------- null}
h -t 0.37256 -s 3 -d 0 -p ack -e 40 -c 0 -i 32 -a 0 -x {3.0 0.0 -1 ------- null}
r -t 0.375226666666667 -s 0 -d 3 -p tcp -e 1000 -c 0 -i 10 -a 0 -x {0.0 3.0 10 ------- null}
+ -t 0.375226666666667 -s 3 -d 0 -p ack -e 40 -c 0 -i 33 -a 0 -x {3.0 0.0 10 ------- null}
- -t 0.375226666666667 -s 3 -d 0 -p ack -e 40 -c 0 -i 33 -a 0 -x {3.0 0.0 10 ------- null}
h -t 0.375226666666667 -s 3 -d 0 -p ack -e 40 -c 0 -i 33 -a 0 -x {3.0 0.0 -1 ------- null}
r -t 0.377893333333333 -s 0 -d 3 -p tcp -e 1000 -c 0 -i 11 -a 0 -x {0.0 3.0 11 ------- null}
+ -t 0.377893333333333 -s 3 -d 0 -p ack -e 40 -c 0 -i 34 -a 0 -x {3.0 0.0 11 ------- null}
- -t 0.377893333333333 -s 3 -d 0 -p ack -e 40 -c 0 -i 34 -a 0 -x {3.0 0.0 11 ------- null}
h -t 0.377893333333333 -s 3 -d 0 -p ack -e 40 -c 0 -i 34 -a 0 -x {3.0 0.0 -1 ------- null}
r -t 0.38056 -s 0 -d 3 -p tcp -e 1000 -c 0 -i 12 -a 0 -x {0.0 3.0 12 ------- null}
+ -t 0.38056 -s 3 -d 0 -p ack -e 40 -c 0 -i 35 -a 0 -x {3.0 0.0 12 ------- null}
- -t 0.38056 -s 3 -d 0 -p ack -e 40 -c 0 -i 35 -a 0 -x {3.0 0.0 12 ------- null}
h -t 0.38056 -s 3 -d 0 -p ack -e 40 -c 0 -i 35 -a 0 -x {3.0 0.0 -1 ------- null}
r -t 0.383226666666666 -s 0 -d 3 -p tcp -e 1000 -c 0 -i 13 -a 0 -x {0.0 3.0 13 ------- null}
+ -t 0.383226666666666 -s 3 -d 0 -p ack -e 40 -c 0 -i 36 -a 0 -x {3.0 0.0 13 ------- null}
- -t 0.383226666666666 -s 3 -d 0 -p ack -e 40 -c 0 -i 36 -a 0 -x {3.0 0.0 13 ------- null}
h -t 0.383226666666666 -s 3 -d 0 -p ack -e 40 -c 0 -i 36 -a 0 -x {3.0 0.0 -1 ------- null}
r -t 0.385893333333333 -s 0 -d 3 -p tcp -e 1000 -c 0 -i 14 -a 0 -x {0.0 3.0 14 ------- null}
+ -t 0.385893333333333 -s 3 -d 0 -p ack -e 40 -c 0 -i 37 -a 0 -x {3.0 0.0 14 ------- null}
- -t 0.385893333333333 -s 3 -d 0 -p ack -e 40 -c 0 -i 37 -a 0 -x {3.0 0.0 14 ------- null}
h -t 0.385893333333333 -s 3 -d 0 -p ack -e 40 -c 0 -i 37 -a 0 -x {3.0 0.0 -1 ------- null}
r -t 0.38856 -s 0 -d 3 -p tcp -e 1000 -c 0 -i 15 -a 0 -x {0.0 3.0 15 ------- null}
+ -t 0.38856 -s 3 -d 0 -p ack -e 40 -c 0 -i 38 -a 0 -x {3.0 0.0 15 ------- null}
- -t 0.38856 -s 3 -d 0 -p ack -e 40 -c 0 -i 38 -a 0 -x {3.0 0.0 15 ------- null}
h -t 0.38856 -s 3 -d 0 -p ack -e 40 -c 0 -i 38 -a 0 -x {3.0 0.0 -1 ------- null}
r -t 0.391226666666666 -s 0 -d 3 -p tcp -e 1000 -c 0 -i 16 -a 0 -x {0.0 3.0 16 ------- null}
+ -t 0.391226666666666 -s 3 -d 0 -p ack -e 40 -c 0 -i 39 -a 0 -x {3.0 0.0 16 ------- null}
- -t 0.391226666666666 -s 3 -d 0 -p ack -e 40 -c 0 -i 39 -a 0 -x {3.0 0.0 16 ------- null}
h -t 0.391226666666666 -s 3 -d 0 -p ack -e 40 -c 0 -i 39 -a 0 -x {3.0 0.0 -1 ------- null}
r -t 0.393893333333333 -s 0 -d 3 -p tcp -e 1000 -c 0 -i 17 -a 0 -x {0.0 3.0 17 ------- null}
+ -t 0.393893333333333 -s 3 -d 0 -p ack -e 40 -c 0 -i 40 -a 0 -x {3.0 0.0 17 ------- null}
- -t 0.393893333333333 -s 3 -d 0 -p ack -e 40 -c 0 -i 40 -a 0 -x {3.0 0.0 17 ------- null}
h -t 0.393893333333333 -s 3 -d 0 -p ack -e 40 -c 0 -i 40 -a 0 -x {3.0 0.0 -1 ------- null}
r -t 0.39656 -s 0 -d 3 -p tcp -e 1000 -c 0 -i 18 -a 0 -x {0.0 3.0 18 ------- null}
+ -t 0.39656 -s 3 -d 0 -p ack -e 40 -c 0 -i 41 -a 0 -x {3.0 0.0 18 ------- null}
- -t 0.39656 -s 3 -d 0 -p ack -e 40 -c 0 -i 41 -a 0 -x {3.0 0.0 18 ------- null}
h -t 0.39656 -s 3 -d 0 -p ack -e 40 -c 0 -i 41 -a 0 -x {3.0 0.0 -1 ------- null}
r -t 0.399226666666666 -s 0 -d 3 -p tcp -e 1000 -c 0 -i 19 -a 0 -x {0.0 3.0 19 ------- null}
+ -t 0.399226666666666 -s 3 -d 0 -p ack -e 40 -c 0 -i 42 -a 0 -x {3.0 0.0 19 ------- null}
- -t 0.399226666666666 -s 3 -d 0 -p ack -e 40 -c 0 -i 42 -a 0 -x {3.0 0.0 19 ------- null}
h -t 0.399226666666666 -s 3 -d 0 -p ack -e 40 -c 0 -i 42 -a 0 -x {3.0 0.0 -1 ------- null}
r -t 0.399333333333333 -s 1 -d 2 -p tcp -e 1000 -c 1 -i 23 -a 1 -x {1.0 2.0 1 ------- null}
+ -t 0.399333333333333 -s 2 -d 1 -p ack -e 40 -c 1 -i 43 -a 1 -x {2.0 1.0 1 ------- null}
- -t 0.399333333333333 -s 2 -d 1 -p ack -e 40 -c 1 -i 43 -a 1 -x {2.0 1.0 1 ------- null}
h -t 0.399333333333333 -s 2 -d 1 -p ack -e 40 -c 1 -i 43 -a 1 -x {2.0 1.0 -1 ------- null}
r -t 0.444666666666667 -s 3 -d 0 -p ack -e 40 -c 0 -i 22 -a 0 -x {3.0 0.0 0 ------- null}
+ -t 0.444666666666667 -s 0 -d 3 -p tcp -e 1000 -c 0 -i 44 -a 0 -x {0.0 3.0 20 ------- null}
- -t 0.444666666666667 -s 0 -d 3 -p tcp -e 1000 -c 0 -i 44 -a 0 -x {0.0 3.0 20 ------- null}
h -t 0.444666666666667 -s 0 -d 3 -p tcp -e 1000 -c 0 -i 44 -a 0 -x {0.0 3.0 -1 ------- null}
r -t 0.447333333333333 -s 3 -d 0 -p ack -e 40 -c 0 -i 24 -a 0 -x {3.0 0.0 1 ------- null}
+ -t 0.447333333333333 -s 0 -d 3 -p tcp -e 1000 -c 0 -i 45 -a 0 -x {0.0 3.0 21 ------- null}
- -t 0.447333333333333 -s 0 -d 3 -p tcp -e 1000 -c 0 -i 45 -a 0 -x {0.0 3.0 21 ------- null}
h -t 0.447333333333333 -s 0 -d 3 -p tcp -e 1000 -c 0 -i 45 -a 0 -x {0.0 3.0 -1 ------- null}
r -t 0.44744 -s 2 -d 1 -p ack -e 40 -c 1 -i 43 -a 1 -x {2.0 1.0 1 ------- null}
+ -t 0.44744 -s 1 -d 2 -p tcp -e 1000 -c 1 -i 46 -a 1 -x {1.0 2.0 2 ------- null}
- -t 0.44744 -s 1 -d 2 -p tcp -e 1000 -c 1 -i 46 -a 1 -x {1.0 2.0 2 ------- null}
h -t 0.44744 -s 1 -d 2 -p tcp -e 1000 -c 1 -i 46 -a 1 -x {1.0 2.0 -1 ------- null}
r -t 0.45 -s 3 -d 0 -p ack -e 40 -c 0 -i 25 -a 0 -x {3.0 0.0 2 ------- null}
+ -t 0.45 -s 0 -d 3 -p tcp -e 1000 -c 0 -i 47 -a 0 -x {0.0 3.0 22 ------- null}
- -t 0.45 -s 0 -d 3 -p tcp -e 1000 -c 0 -i 47 -a 0 -x {0.0 3.0 22 ------- null}
h -t 0.45 -s 0 -d 3 -p tcp -e 1000 -c 0 -i 47 -a 0 -x {0.0 3.0 -1 ------- null}
r -t 0.452666666666667 -s 3 -d 0 -p ack -e 40 -c 0 -i 26 -a 0 -x {3.0 0.0 3 ------- null}
+ -t 0.452666666666667 -s 0 -d 3 -p tcp -e 1000 -c 0 -i 48 -a 0 -x {0.0 3.0 23 ------- null}
- -t 0.452666666666667 -s 0 -d 3 -p tcp -e 1000 -c 0 -i 48 -a 0 -x {0.0 3.0 23 ------- null}
h -t 0.452666666666667 -s 0 -d 3 -p tcp -e 1000 -c 0 -i 48 -a 0 -x {0.0 3.0 -1 ------- null}
r -t 0.455333333333333 -s 3 -d 0 -p ack -e 40 -c 0 -i 27 -a 0 -x {3.0 0.0 4 ------- null}
+ -t 0.455333333333333 -s 0 -d 3 -p tcp -e 1000 -c 0 -i 49 -a 0 -x {0.0 3.0 24 ------- null}
- -t 0.455333333333333 -s 0 -d 3 -p tcp -e 1000 -c 0 -i 49 -a 0 -x {0.0 3.0 24 ------- null}
h -t 0.455333333333333 -s 0 -d 3 -p tcp -e 1000 -c 0 -i 49 -a 0 -x {0.0 3.0 -1 ------- null}
r -t 0.458 -s 3 -d 0 -p ack -e 40 -c 0 -i 28 -a 0 -x {3.0 0.0 5 ------- null}
+ -t 0.458 -s 0 -d 3 -p tcp -e 1000 -c 0 -i 50 -a 0 -x {0.0 3.0 25 ------- null}
- -t 0.458 -s 0 -d 3 -p tcp -e 1000 -c 0 -i 50 -a 0 -x {0.0 3.0 25 ------- null}
h -t 0.458 -s 0 -d 3 -p tcp -e 1000 -c 0 -i 50 -a 0 -x {0.0 3.0 -1 ------- null}
r -t 0.460666666666667 -s 3 -d 0 -p ack -e 40 -c 0 -i 29 -a 0 -x {3.0 0.0 6 ------- null}
+ -t 0.460666666666667 -s 0 -d 3 -p tcp -e 1000 -c 0 -i 51 -a 0 -x {0.0 3.0 26 ------- null}
- -t 0.460666666666667 -s 0 -d 3 -p tcp -e 1000 -c 0 -i 51 -a 0 -x {0.0 3.0 26 ------- null}
h -t 0.460666666666667 -s 0 -d 3 -p tcp -e 1000 -c 0 -i 51 -a 0 -x {0.0 3.0 -1 ------- null}
r -t 0.463333333333333 -s 3 -d 0 -p ack -e 40 -c 0 -i 30 -a 0 -x {3.0 0.0 7 ------- null}
+ -t 0.463333333333333 -s 0 -d 3 -p tcp -e 1000 -c 0 -i 52 -a 0 -x {0.0 3.0 27 ------- null}
- -t 0.463333333333333 -s 0 -d 3 -p tcp -e 1000 -c 0 -i 52 -a 0 -x {0.0 3.0 27 ------- null}
h -t 0.463333333333333 -s 0 -d 3 -p tcp -e 1000 -c 0 -i 52 -a 0 -x {0.0 3.0 -1 ------- null}
r -t 0.466 -s 3 -d 0 -p ack -e 40 -c 0 -i 31 -a 0 -x {3.0 0.0 8 ------- null}
+ -t 0.466 -s 0 -d 3 -p tcp -e 1000 -c 0 -i 53 -a 0 -x {0.0 3.0 28 ------- null}
- -t 0.466 -s 0 -d 3 -p tcp -e 1000 -c 0 -i 53 -a 0 -x {0.0 3.0 28 ------- null}
h -t 0.466 -s 0 -d 3 -p tcp -e 1000 -c 0 -i 53 -a 0 -x {0.0 3.0 -1 ------- null}
r -t 0.468666666666667 -s 3 -d 0 -p ack -e 40 -c 0 -i 32 -a 0 -x {3.0 0.0 9 ------- null}
+ -t 0.468666666666667 -s 0 -d 3 -p tcp -e 1000 -c 0 -i 54 -a 0 -x {0.0 3.0 29 ------- null}
- -t 0.468666666666667 -s 0 -d 3 -p tcp -e 1000 -c 0 -i 54 -a 0 -x {0.0 3.0 29 ------- null}
h -t 0.468666666666667 -s 0 -d 3 -p tcp -e 1000 -c 0 -i 54 -a 0 -x {0.0 3.0 -1 ------- null}
r -t 0.471333333333333 -s 3 -d 0 -p ack -e 40 -c 0 -i 33 -a 0 -x {3.0 0.0 10 ------- null}
+ -t 0.471333333333333 -s 0 -d 3 -p tcp -e 1000 -c 0 -i 55 -a 0 -x {0.0 3.0 30 ------- null}
- -t 0.471333333333333 -s 0 -d 3 -p tcp -e 1000 -c 0 -i 55 -a 0 -x {0.0 3.0 30 ------- null}
h -t 0.471333333333333 -s 0 -d 3 -p tcp -e 1000 -c 0 -i 55 -a 0 -x {0.0 3.0 -1 ------- null}
r -t 0.474 -s 3 -d 0 -p ack -e 40 -c 0 -i 34 -a 0 -x {3.0 0.0 11 ------- null}
+ -t 0.474 -s 0 -d 3 -p tcp -e 1000 -c 0 -i 56 -a 0 -x {0.0 3.0 31 ------- null}
- -t 0.474 -s 0 -d 3 -p tcp -e 1000 -c 0 -i 56 -a 0 -x {0.0 3.0 31 ------- null}
h -t 0.474 -s 0 -d 3 -p tcp -e 1000 -c 0 -i 56 -a 0 -x {0.0 3.0 -1 ------- null}
r -t 0.476666666666667 -s 3 -d 0 -p ack -e 40 -c 0 -i 35 -a 0 -x {3.0 0.0 12 ------- null}
+ -t 0.476666666666667 -s 0 -d 3 -p tcp -e 1000 -c 0 -i 57 -a 0 -x {0.0 3.0 32 ------- null}
- -t 0.476666666666667 -s 0 -d 3 -p tcp -e 1000 -c 0 -i 57 -a 0 -x {0.0 3.0 32 ------- null}
h -t 0.476666666666667 -s 0 -d 3 -p tcp -e 1000 -c 0 -i 57 -a 0 -x {0.0 3.0 -1 ------- null}
r -t 0.479333333333333 -s 3 -d 0 -p ack -e 40 -c 0 -i 36 -a 0 -x {3.0 0.0 13 ------- null}
+ -t 0.479333333333333 -s 0 -d 3 -p tcp -e 1000 -c 0 -i 58 -a 0 -x {0.0 3.0 33 ------- null}
- -t 0.479333333333333 -s 0 -d 3 -p tcp -e 1000 -c 0 -i 58 -a 0 -x {0.0 3.0 33 ------- null}
h -t 0.479333333333333 -s 0 -d 3 -p tcp -e 1000 -c 0 -i 58 -a 0 -x {0.0 3.0 -1 ------- null}
r -t 0.482 -s 3 -d 0 -p ack -e 40 -c 0 -i 37 -a 0 -x {3.0 0.0 14 ------- null}
+ -t 0.482 -s 0 -d 3 -p tcp -e 1000 -c 0 -i 59 -a 0 -x {0.0 3.0 34 ------- null}
- -t 0.482 -s 0 -d 3 -p tcp -e 1000 -c 0 -i 59 -a 0 -x {0.0 3.0 34 ------- null}
h -t 0.482 -s 0 -d 3 -p tcp -e 1000 -c 0 -i 59 -a 0 -x {0.0 3.0 -1 ------- null}
r -t 0.484666666666666 -s 3 -d 0 -p ack -e 40 -c 0 -i 38 -a 0 -x {3.0 0.0 15 ------- null}
+ -t 0.484666666666666 -s 0 -d 3 -p tcp -e 1000 -c 0 -i 60 -a 0 -x {0.0 3.0 35 ------- null}
- -t 0.484666666666666 -s 0 -d 3 -p tcp -e 1000 -c 0 -i 60 -a 0 -x {0.0 3.0 35 ------- null}
h -t 0.484666666666666 -s 0 -d 3 -p tcp -e 1000 -c 0 -i 60 -a 0 -x {0.0 3.0 -1 ------- null}
r -t 0.487333333333333 -s 3 -d 0 -p ack -e 40 -c 0 -i 39 -a 0 -x {3.0 0.0 16 ------- null}
+ -t 0.487333333333333 -s 0 -d 3 -p tcp -e 1000 -c 0 -i 61 -a 0 -x {0.0 3.0 36 ------- null}
- -t 0.487333333333333 -s 0 -d 3 -p tcp -e 1000 -c 0 -i 61 -a 0 -x {0.0 3.0 36 ------- null}
h -t 0.487333333333333 -s 0 -d 3 -p tcp -e 1000 -c 0 -i 61 -a 0 -x {0.0 3.0 -1 ------- null}
r -t 0.49 -s 3 -d 0 -p ack -e 40 -c 0 -i 40 -a 0 -x {3.0 0.0 17 ------- null}
+ -t 0.49 -s 0 -d 3 -p tcp -e 1000 -c 0 -i 62 -a 0 -x {0.0 3.0 37 ------- null}
- -t 0.49 -s 0 -d 3 -p tcp -e 1000 -c 0 -i 62 -a 0 -x {0.0 3.0 37 ------- null}
h -t 0.49 -s 0 -d 3 -p tcp -e 1000 -c 0 -i 62 -a 0 -x {0.0 3.0 -1 ------- null}
r -t 0.492666666666666 -s 3 -d 0 -p ack -e 40 -c 0 -i 41 -a 0 -x {3.0 0.0 18 ------- null}
+ -t 0.492666666666666 -s 0 -d 3 -p tcp -e 1000 -c 0 -i 63 -a 0 -x {0.0 3.0 38 ------- null}
- -t 0.492666666666666 -s 0 -d 3 -p tcp -e 1000 -c 0 -i 63 -a 0 -x {0.0 3.0 38 ------- null}
h -t 0.492666666666666 -s 0 -d 3 -p tcp -e 1000 -c 0 -i 63 -a 0 -x {0.0 3.0 -1 ------- null}
r -t 0.495333333333333 -s 3 -d 0 -p ack -e 40 -c 0 -i 42 -a 0 -x {3.0 0.0 19 ------- null}
+ -t 0.495333333333333 -s 0 -d 3 -p tcp -e 1000 -c 0 -i 64 -a 0 -x {0.0 3.0 39 ------- null}
- -t 0.495333333333333 -s 0 -d 3 -p tcp -e 1000 -c 0 -i 64 -a 0 -x {0.0 3.0 39 ------- null}
h -t 0.495333333333333 -s 0 -d 3 -p tcp -e 1000 -c 0 -i 64 -a 0 -x {0.0 3.0 -1 ------- null}
r -t 0.498106666666667 -s 1 -d 2 -p tcp -e 1000 -c 1 -i 46 -a 1 -x {1.0 2.0 2 ------- null}
+ -t 0.498106666666667 -s 2 -d 1 -p ack -e 40 -c 1 -i 65 -a 1 -x {2.0 1.0 2 ------- null}
- -t 0.498106666666667 -s 2 -d 1 -p ack -e 40 -c 1 -i 65 -a 1 -x {2.0 1.0 2 ------- null}
h -t 0.498106666666667 -s 2 -d 1 -p ack -e 40 -c 1 -i 65 -a 1 -x {2.0 1.0 -1 ------- null}
r -t 0.543333333333333 -s 0 -d 3 -p tcp -e 1000 -c 0 -i 44 -a 0 -x {0.0 3.0 20 ------- null}
+ -t 0.543333333333333 -s 3 -d 0 -p ack -e 40 -c 0 -i 66 -a 0 -x {3.0 0.0 20 ------- null}
- -t 0.543333333333333 -s 3 -d 0 -p ack -e 40 -c 0 -i 66 -a 0 -x {3.0 0.0 20 ------- null}
h -t 0.543333333333333 -s 3 -d 0 -p ack -e 40 -c 0 -i 66 -a 0 -x {3.0 0.0 -1 ------- null}
r -t 0.546 -s 0 -d 3 -p tcp -e 1000 -c 0 -i 45 -a 0 -x {0.0 3.0 21 ------- null}
+ -t 0.546 -s 3 -d 0 -p ack -e 40 -c 0 -i 67 -a 0 -x {3.0 0.0 21 ------- null}
- -t 0.546 -s 3 -d 0 -p ack -e 40 -c 0 -i 67 -a 0 -x {3.0 0.0 21 ------- null}
h -t 0.546 -s 3 -d 0 -p ack -e 40 -c 0 -i 67 -a 0 -x {3.0 0.0 -1 ------- null}
r -t 0.546213333333333 -s 2 -d 1 -p ack -e 40 -c 1 -i 65 -a 1 -x {2.0 1.0 2 ------- null}
+ -t 0.546213333333333 -s 1 -d 2 -p tcp -e 1000 -c 1 -i 68 -a 1 -x {1.0 2.0 3 ------- null}
- -t 0.546213333333333 -s 1 -d 2 -p tcp -e 1000 -c 1 -i 68 -a 1 -x {1.0 2.0 3 ------- null}
h -t 0.546213333333333 -s 1 -d 2 -p tcp -e 1000 -c 1 -i 68 -a 1 -x {1.0 2.0 -1 ------- null}
r -t 0.548666666666667 -s 0 -d 3 -p tcp -e 1000 -c 0 -i 47 -a 0 -x {0.0 3.0 22 ------- null}
+ -t 0.548666666666667 -s 3 -d 0 -p ack -e 40 -c 0 -i 69 -a 0 -x {3.0 0.0 22 ------- null}
- -t 0.548666666666667 -s 3 -d 0 -p ack -e 40 -c 0 -i 69 -a 0 -x {3.0 0.0 22 ------- null}
h -t 0.548666666666667 -s 3 -d 0 -p ack -e 40 -c 0 -i 69 -a 0 -x {3.0 0.0 -1 ------- null}
r -t 0.551333333333333 -s 0 -d 3 -p tcp -e 1000 -c 0 -i 48 -a 0 -x {0.0 3.0 23 ------- null}
+ -t 0.551333333333333 -s 3 -d 0 -p ack -e 40 -c 0 -i 70 -a 0 -x {3.0 0.0 23 ------- null}
- -t 0.551333333333333 -s 3 -d 0 -p ack -e 40 -c 0 -i 70 -a 0 -x {3.0 0.0 23 ------- null}
h -t 0.551333333333333 -s 3 -d 0 -p ack -e 40 -c 0 -i 70 -a 0 -x {3.0 0.0 -1 ------- null}
r -t 0.554 -s 0 -d 3 -p tcp -e 1000 -c 0 -i 49 -a 0 -x {0.0 3.0 24 ------- null}
+ -t 0.554 -s 3 -d 0 -p ack -e 40 -c 0 -i 71 -a 0 -x {3.0 0.0 24 ------- null}
- -t 0.554 -s 3 -d 0 -p ack -e 40 -c 0 -i 71 -a 0 -x {3.0 0.0 24 ------- null}
h -t 0.554 -s 3 -d 0 -p ack -e 40 -c 0 -i 71 -a 0 -x {3.0 0.0 -1 ------- null}
r -t 0.556666666666667 -s 0 -d 3 -p tcp -e 1000 -c 0 -i 50 -a 0 -x {0.0 3.0 25 ------- null}
+ -t 0.556666666666667 -s 3 -d 0 -p ack -e 40 -c 0 -i 72 -a 0 -x {3.0 0.0 25 ------- null}
- -t 0.556666666666667 -s 3 -d 0 -p ack -e 40 -c 0 -i 72 -a 0 -x {3.0 0.0 25 ------- null}
h -t 0.556666666666667 -s 3 -d 0 -p ack -e 40 -c 0 -i 72 -a 0 -x {3.0 0.0 -1 ------- null}
r -t 0.559333333333333 -s 0 -d 3 -p tcp -e 1000 -c 0 -i 51 -a 0 -x {0.0 3.0 26 ------- null}
+ -t 0.559333333333333 -s 3 -d 0 -p ack -e 40 -c 0 -i 73 -a 0 -x {3.0 0.0 26 ------- null}
- -t 0.559333333333333 -s 3 -d 0 -p ack -e 40 -c 0 -i 73 -a 0 -x {3.0 0.0 26 ------- null}
h -t 0.559333333333333 -s 3 -d 0 -p ack -e 40 -c 0 -i 73 -a 0 -x {3.0 0.0 -1 ------- null}
r -t 0.562 -s 0 -d 3 -p tcp -e 1000 -c 0 -i 52 -a 0 -x {0.0 3.0 27 ------- null}
+ -t 0.562 -s 3 -d 0 -p ack -e 40 -c 0 -i 74 -a 0 -x {3.0 0.0 27 ------- null}
- -t 0.562 -s 3 -d 0 -p ack -e 40 -c 0 -i 74 -a 0 -x {3.0 0.0 27 ------- null}
h -t 0.562 -s 3 -d 0 -p ack -e 40 -c 0 -i 74 -a 0 -x {3.0 0.0 -1 ------- null}
r -t 0.564666666666667 -s 0 -d 3 -p tcp -e 1000 -c 0 -i 53 -a 0 -x {0.0 3.0 28 ------- null}
+ -t 0.564666666666667 -s 3 -d 0 -p ack -e 40 -c 0 -i 75 -a 0 -x {3.0 0.0 28 ------- null}
- -t 0.564666666666667 -s 3 -d 0 -p ack -e 40 -c 0 -i 75 -a 0 -x {3.0 0.0 28 ------- null}
h -t 0.564666666666667 -s 3 -d 0 -p ack -e 40 -c 0 -i 75 -a 0 -x {3.0 0.0 -1 ------- null}
r -t 0.567333333333333 -s 0 -d 3 -p tcp -e 1000 -c 0 -i 54 -a 0 -x {0.0 3.0 29 ------- null}
+ -t 0.567333333333333 -s 3 -d 0 -p ack -e 40 -c 0 -i 76 -a 0 -x {3.0 0.0 29 ------- null}
- -t 0.567333333333333 -s 3 -d 0 -p ack -e 40 -c 0 -i 76 -a 0 -x {3.0 0.0 29 ------- null}
h -t 0.567333333333333 -s 3 -d 0 -p ack -e 40 -c 0 -i 76 -a 0 -x {3.0 0.0 -1 ------- null}
r -t 0.57 -s 0 -d 3 -p tcp -e 1000 -c 0 -i 55 -a 0 -x {0.0 3.0 30 ------- null}
+ -t 0.57 -s 3 -d 0 -p ack -e 40 -c 0 -i 77 -a 0 -x {3.0 0.0 30 ------- null}
- -t 0.57 -s 3 -d 0 -p ack -e 40 -c 0 -i 77 -a 0 -x {3.0 0.0 30 ------- null}
h -t 0.57 -s 3 -d 0 -p ack -e 40 -c 0 -i 77 -a 0 -x {3.0 0.0 -1 ------- null}
r -t 0.572666666666667 -s 0 -d 3 -p tcp -e 1000 -c 0 -i 56 -a 0 -x {0.0 3.0 31 ------- null}
+ -t 0.572666666666667 -s 3 -d 0 -p ack -e 40 -c 0 -i 78 -a 0 -x {3.0 0.0 31 ------- null}
- -t 0.572666666666667 -s 3 -d 0 -p ack -e 40 -c 0 -i 78 -a 0 -x {3.0 0.0 31 ------- null}
h -t 0.572666666666667 -s 3 -d 0 -p ack -e 40 -c 0 -i 78 -a 0 -x {3.0 0.0 -1 ------- null}
r -t 0.575333333333333 -s 0 -d 3 -p tcp -e 1000 -c 0 -i 57 -a 0 -x {0.0 3.0 32 ------- null}
+ -t 0.575333333333333 -s 3 -d 0 -p ack -e 40 -c 0 -i 79 -a 0 -x {3.0 0.0 32 ------- null}
- -t 0.575333333333333 -s 3 -d 0 -p ack -e 40 -c 0 -i 79 -a 0 -x {3.0 0.0 32 ------- null}
h -t 0.575333333333333 -s 3 -d 0 -p ack -e 40 -c 0 -i 79 -a 0 -x {3.0 0.0 -1 ------- null}
r -t 0.578 -s 0 -d 3 -p tcp -e 1000 -c 0 -i 58 -a 0 -x {0.0 3.0 33 ------- null}
+ -t 0.578 -s 3 -d 0 -p ack -e 40 -c 0 -i 80 -a 0 -x {3.0 0.0 33 ------- null}
- -t 0.578 -s 3 -d 0 -p ack -e 40 -c 0 -i 80 -a 0 -x {3.0 0.0 33 ------- null}
h -t 0.578 -s 3 -d 0 -p ack -e 40 -c 0 -i 80 -a 0 -x {3.0 0.0 -1 ------- null}
r -t 0.580666666666666 -s 0 -d 3 -p tcp -e 1000 -c 0 -i 59 -a 0 -x {0.0 3.0 34 ------- null}
+ -t 0.580666666666666 -s 3 -d 0 -p ack -e 40 -c 0 -i 81 -a 0 -x {3.0 0.0 34 ------- null}
- -t 0.580666666666666 -s 3 -d 0 -p ack -e 40 -c 0 -i 81 -a 0 -x {3.0 0.0 34 ------- null}
h -t 0.580666666666666 -s 3 -d 0 -p ack -e 40 -c 0 -i 81 -a 0 -x {3.0 0.0 -1 ------- null}
r -t 0.583333333333333 -s 0 -d 3 -p tcp -e 1000 -c 0 -i 60 -a 0 -x {0.0 3.0 35 ------- null}
+ -t 0.583333333333333 -s 3 -d 0 -p ack -e 40 -c 0 -i 82 -a 0 -x {3.0 0.0 35 ------- null}
- -t 0.583333333333333 -s 3 -d 0 -p ack -e 40 -c 0 -i 82 -a 0 -x {3.0 0.0 35 ------- null}
h -t 0.583333333333333 -s 3 -d 0 -p ack -e 40 -c 0 -i 82 -a 0 -x {3.0 0.0 -1 ------- null}
r -t 0.586 -s 0 -d 3 -p tcp -e 1000 -c 0 -i 61 -a 0 -x {0.0 3.0 36 ------- null}
+ -t 0.586 -s 3 -d 0 -p ack -e 40 -c 0 -i 83 -a 0 -x {3.0 0.0 36 ------- null}
- -t 0.586 -s 3 -d 0 -p ack -e 40 -c 0 -i 83 -a 0 -x {3.0 0.0 36 ------- null}
h -t 0.586 -s 3 -d 0 -p ack -e 40 -c 0 -i 83 -a 0 -x {3.0 0.0 -1 ------- null}
r -t 0.588666666666666 -s 0 -d 3 -p tcp -e 1000 -c 0 -i 62 -a 0 -x {0.0 3.0 37 ------- null}
+ -t 0.588666666666666 -s 3 -d 0 -p ack -e 40 -c 0 -i 84 -a 0 -x {3.0 0.0 37 ------- null}
- -t 0.588666666666666 -s 3 -d 0 -p ack -e 40 -c 0 -i 84 -a 0 -x {3.0 0.0 37 ------- null}
h -t 0.588666666666666 -s 3 -d 0 -p ack -e 40 -c 0 -i 84 -a 0 -x {3.0 0.0 -1 ------- null}
r -t 0.591333333333333 -s 0 -d 3 -p tcp -e 1000 -c 0 -i 63 -a 0 -x {0.0 3.0 38 ------- null}
+ -t 0.591333333333333 -s 3 -d 0 -p ack -e 40 -c 0 -i 85 -a 0 -x {3.0 0.0 38 ------- null}
- -t 0.591333333333333 -s 3 -d 0 -p ack -e 40 -c 0 -i 85 -a 0 -x {3.0 0.0 38 ------- null}
h -t 0.591333333333333 -s 3 -d 0 -p ack -e 40 -c 0 -i 85 -a 0 -x {3.0 0.0 -1 ------- null}
r -t 0.594 -s 0 -d 3 -p tcp -e 1000 -c 0 -i 64 -a 0 -x {0.0 3.0 39 ------- null}
+ -t 0.594 -s 3 -d 0 -p ack -e 40 -c 0 -i 86 -a 0 -x {3.0 0.0 39 ------- null}
- -t 0.594 -s 3 -d 0 -p ack -e 40 -c 0 -i 86 -a 0 -x {3.0 0.0 39 ------- null}
h -t 0.594 -s 3 -d 0 -p ack -e 40 -c 0 -i 86 -a 0 -x {3.0 0.0 -1 ------- null}
r -t 0.59688 -s 1 -d 2 -p tcp -e 1000 -c 1 -i 68 -a 1 -x {1.0 2.0 3 ------- null}
+ -t 0.59688 -s 2 -d 1 -p ack -e 40 -c 1 -i 87 -a 1 -x {2.0 1.0 3 ------- null}
- -t 0.59688 -s 2 -d 1 -p ack -e 40 -c 1 -i 87 -a 1 -x {2.0 1.0 3 ------- null}
h -t 0.59688 -s 2 -d 1 -p ack -e 40 -c 1 -i 87 -a 1 -x {2.0 1.0 -1 ------- null}
r -t 0.63944 -s 3 -d 0 -p ack -e 40 -c 0 -i 66 -a 0 -x {3.0 0.0 20 ------- null}
+ -t 0.63944 -s 0 -d 3 -p tcp -e 1000 -c 0 -i 88 -a 0 -x {0.0 3.0 40 ------- null}
- -t 0.63944 -s 0 -d 3 -p tcp -e 1000 -c 0 -i 88 -a 0 -x {0.0 3.0 40 ------- null}
h -t 0.63944 -s 0 -d 3 -p tcp -e 1000 -c 0 -i 88 -a 0 -x {0.0 3.0 -1 ------- null}