s 0.250000000 _0_ AGT  --- 0 cbr 1000 [0 0 0 0] ------- [0:0 25:0 32 0] [0] 0 0
r 0.250000000 _0_ RTR  --- 0 cbr 1000 [0 0 0 0] ------- [0:0 25:0 32 0] [0] 0 0
s 0.250000000 _0_ RTR  --- 0 AODV 48 [0 0 0 0] ------- [0:255 -1:255 30 0] [0x2 1 1 [25 0] [0 4]] (REQUEST)
r 0.251408067 _1_ RTR  --- 0 AODV 48 [0 ffffffff 0 800] ------- [0:255 -1:255 30 0] [0x2 1 1 [25 0] [0 4]] (REQUEST)
r 0.251408133 _2_ RTR  --- 0 AODV 48 [0 ffffffff 0 800] ------- [0:255 -1:255 30 0] [0x2 1 1 [25 0] [0 4]] (REQUEST)
r 0.251408200 _3_ RTR  --- 0 AODV 48 [0 ffffffff 0 800] ------- [0:255 -1:255 30 0] [0x2 1 1 [25 0] [0 4]] (REQUEST)
r 0.251408267 _4_ RTR  --- 0 AODV 48 [0 ffffffff 0 800] ------- [0:255 -1:255 30 0] [0x2 1 1 [25 0] [0 4]] (REQUEST)
r 0.251408333 _5_ RTR  --- 0 AODV 48 [0 ffffffff 0 800] ------- [0:255 -1:255 30 0] [0x2 1 1 [25 0] [0 4]] (REQUEST)
r 0.251408400 _6_ RTR  --- 0 AODV 48 [0 ffffffff 0 800] ------- [0:255 -1:255 30 0] [0x2 1 1 [25 0] [0 4]] (REQUEST)
r 0.251408467 _7_ RTR  --- 0 AODV 48 [0 ffffffff 0 800] ------- [0:255 -1:255 30 0] [0x2 1 1 [25 0] [0 4]] (REQUEST)
r 0.251408533 _8_ RTR  --- 0 AODV 48 [0 ffffffff 0 800] ------- [0:255 -1:255 30 0] [0x2 1 1 [25 0] [0 4]] (REQUEST)
r 0.251408600 _9_ RTR  --- 0 AODV 48 [0 ffffffff 0 800] ------- [0:255 -1:255 30 0] [0x2 1 1 [25 0] [0 4]] (REQUEST)
r 0.251408667 _10_ RTR  --- 0 AODV 48 [0 ffffffff 0 800] ------- [0:255 -1:255 30 0] [0x2 1 1 [25 0] [0 4]] (REQUEST)
r 0.251408733 _11_ RTR  --- 0 AODV 48 [0 ffffffff 0 800] ------- [0:255 -1:255 30 0] [0x2 1 1 [25 0] [0 4]] (REQUEST)
r 0.251408800 _12_ RTR  --- 0 AODV 48 [0 ffffffff 0 800] ------- [0:255 -1:255 30 0] [0x2 1 1 [25 0] [0 4]] (REQUEST)
s 0.251550113 _1_ RTR  --- 0 AODV 48 [0 ffffffff 0 800] ------- [1:255 -1:255 29 0] [0x2 2 1 [25 0] [0 4]] (REQUEST)
s 0.251836746 _12_ RTR  --- 0 AODV 48 [0 ffffffff 0 800] ------- [12:255 -1:255 29 0] [0x2 2 1 [25 0] [0 4]] (REQUEST)
s 0.252289360 _2_ RTR  --- 0 AODV 48 [0 ffffffff 0 800] ------- [2:255 -1:255 29 0] [0x2 2 1 [25 0] [0 4]] (REQUEST)
r 0.252658180 _0_ RTR  --- 0 AODV 48 [0 ffffffff 1 800] ------- [1:255 -1:255 29 0] [0x2 2 1 [25 0] [0 4]] (REQUEST)
r 0.252658180 _2_ RTR  --- 0 AODV 48 [0 ffffffff 1 800] ------- [1:255 -1:255 29 0] [0x2 2 1 [25 0] [0 4]] (REQUEST)
r 0.252658247 _3_ RTR  --- 0 AODV 48 [0 ffffffff 1 800] ------- [1:255 -1:255 29 0] [0x2 2 1 [25 0] [0 4]] (REQUEST)
r 0.252658313 _4_ RTR  --- 0 AODV 48 [0 ffffffff 1 800] ------- [1:255 -1:255 29 0] [0x2 2 1 [25 0] [0 4]] (REQUEST)
r 0.252658380 _5_ RTR  --- 0 AODV 48 [0 ffffffff 1 800] ------- [1:255 -1:255 29 0] [0x2 2 1 [25 0] [0 4]] (REQUEST)
r 0.252658447 _6_ RTR  --- 0 AODV 48 [0 ffffffff 1 800] ------- [1:255 -1:255 29 0] [0x2 2 1 [25 0] [0 4]] (REQUEST)
r 0.252658513 _7_ RTR  --- 0 AODV 48 [0 ffffffff 1 800] ------- [1:255 -1:255 29 0] [0x2 2 1 [25 0] [0 4]] (REQUEST)
r 0.252658580 _8_ RTR  --- 0 AODV 48 [0 ffffffff 1 800] ------- [1:255 -1:255 29 0] [0x2 2 1 [25 0] [0 4]] (REQUEST)
r 0.252658647 _9_ RTR  --- 0 AODV 48 [0 ffffffff 1 800] ------- [1:255 -1:255 29 0] [0x2 2 1 [25 0] [0 4]] (REQUEST)
r 0.252658713 _10_ RTR  --- 0 AODV 48 [0 ffffffff 1 800] ------- [1:255 -1:255 29 0] [0x2 2 1 [25 0] [0 4]] (REQUEST)
r 0.252658780 _11_ RTR  --- 0 AODV 48 [0 ffffffff 1 800] ------- [1:255 -1:255 29 0] [0x2 2 1 [25 0] [0 4]] (REQUEST)
r 0.252658847 _12_ RTR  --- 0 AODV 48 [0 ffffffff 1 800] ------- [1:255 -1:255 29 0] [0x2 2 1 [25 0] [0 4]] (REQUEST)
r 0.252658913 _13_ RTR  --- 0 AODV 48 [0 ffffffff 1 800] ------- [1:255 -1:255 29 0] [0x2 2 1 [25 0] [0 4]] (REQUEST)
s 0.253050187 _11_ RTR  --- 0 AODV 48 [0 ffffffff 0 800] ------- [11:255 -1:255 29 0] [0x2 2 1 [25 0] [0 4]] (REQUEST)
s 0.253754484 _7_ RTR  --- 0 AODV 48 [0 ffffffff 0 800] ------- [7:255 -1:255 29 0] [0x2 2 1 [25 0] [0 4]] (REQUEST)
r 0.253796247 _1_ RTR  --- 0 AODV 48 [0 ffffffff 2 800] ------- [2:255 -1:255 29 0] [0x2 2 1 [25 0] [0 4]] (REQUEST)
r 0.253796247 _3_ RTR  --- 0 AODV 48 [0 ffffffff 2 800] ------- [2:255 -1:255 29 0] [0x2 2 1 [25 0] [0 4]] (REQUEST)
r 0.253796313 _0_ RTR  --- 0 AODV 48 [0 ffffffff 2 800] ------- [2:255 -1:255 29 0] [0x2 2 1 [25 0] [0 4]] (REQUEST)
r 0.253796313 _4_ RTR  --- 0 AODV 48 [0 ffffffff 2 800] ------- [2:255 -1:255 29 0] [0x2 2 1 [25 0] [0 4]] (REQUEST)
r 0.253796380 _5_ RTR  --- 0 AODV 48 [0 ffffffff 2 800] ------- [2:255 -1:255 29 0] [0x2 2 1 [25 0] [0 4]] (REQUEST)
r 0.253796447 _6_ RTR  --- 0 AODV 48 [0 ffffffff 2 800] ------- [2:255 -1:255 29 0] [0x2 2 1 [25 0] [0 4]] (REQUEST)
r 0.253796513 _7_ RTR  --- 0 AODV 48 [0 ffffffff 2 800] ------- [2:255 -1:255 29 0] [0x2 2 1 [25 0] [0 4]] (REQUEST)
r 0.253796580 _8_ RTR  --- 0 AODV 48 [0 ffffffff 2 800] ------- [2:255 -1:255 29 0] [0x2 2 1 [25 0] [0 4]] (REQUEST)
r 0.253796647 _9_ RTR  --- 0 AODV 48 [0 ffffffff 2 800] ------- [2:255 -1:255 29 0] [0x2 2 1 [25 0] [0 4]] (REQUEST)
r 0.253796713 _10_ RTR  --- 0 AODV 48 [0 ffffffff 2 800] ------- [2:255 -1:255 29 0] [0x2 2 1 [25 0] [0 4]] (REQUEST)
r 0.253796780 _11_ RTR  --- 0 AODV 48 [0 ffffffff 2 800] ------- [2:255 -1:255 29 0] [0x2 2 1 [25 0] [0 4]] (REQUEST)
r 0.253796847 _12_ RTR  --- 0 AODV 48 [0 ffffffff 2 800] ------- [2:255 -1:255 29 0] [0x2 2 1 [25 0] [0 4]] (REQUEST)
r 0.253796913 _13_ RTR  --- 0 AODV 48 [0 ffffffff 2 800] ------- [2:255 -1:255 29 0] [0x2 2 1 [25 0] [0 4]] (REQUEST)
r 0.253796980 _14_ RTR  --- 0 AODV 48 [0 ffffffff 2 800] ------- [2:255 -1:255 29 0] [0x2 2 1 [25 0] [0 4]] (REQUEST)
s 0.254406966 _13_ RTR  --- 0 AODV 48 [0 ffffffff 1 800] ------- [13:255 -1:255 28 0] [0x2 3 1 [25 0] [0 4]] (REQUEST)
s 0.254499391 _9_ RTR  --- 0 AODV 48 [0 ffffffff 0 800] ------- [9:255 -1:255 29 0] [0x2 2 1 [25 0] [0 4]] (REQUEST)
s 0.254537951 _5_ RTR  --- 0 AODV 48 [0 ffffffff 0 800] ------- [5:255 -1:255 29 0] [0x2 2 1 [25 0] [0 4]] (REQUEST)
r 0.254814913 _11_ RTR  --- 0 AODV 48 [0 ffffffff c 800] ------- [12:255 -1:255 29 0] [0x2 2 1 [25 0] [0 4]] (REQUEST)
r 0.254814913 _13_ RTR  --- 0 AODV 48 [0 ffffffff c 800] ------- [12:255 -1:255 29 0] [0x2 2 1 [25 0] [0 4]] (REQUEST)
r 0.254814980 _10_ RTR  --- 0 AODV 48 [0 ffffffff c 800] ------- [12:255 -1:255 29 0] [0x2 2 1 [25 0] [0 4]] (REQUEST)
r 0.254814980 _14_ RTR  --- 0 AODV 48 [0 ffffffff c 800] ------- [12:255 -1:255 29 0] [0x2 2 1 [25 0] [0 4]] (REQUEST)
r 0.254815047 _9_ RTR  --- 0 AODV 48 [0 ffffffff c 800] ------- [12:255 -1:255 29 0] [0x2 2 1 [25 0] [0 4]] (REQUEST)
r 0.254815047 _15_ RTR  --- 0 AODV 48 [0 ffffffff c 800] ------- [12:255 -1:255 29 0] [0x2 2 1 [25 0] [0 4]] (REQUEST)
r 0.254815113 _8_ RTR  --- 0 AODV 48 [0 ffffffff c 800] ------- [12:255 -1:255 29 0] [0x2 2 1 [25 0] [0 4]] (REQUEST)
r 0.254815113 _16_ RTR  --- 0 AODV 48 [0 ffffffff c 800] ------- [12:255 -1:255 29 0] [0x2 2 1 [25 0] [0 4]] (REQUEST)
r 0.254815180 _7_ RTR  --- 0 AODV 48 [0 ffffffff c 800] ------- [12:255 -1:255 29 0] [0x2 2 1 [25 0] [0 4]] (REQUEST)
r 0.254815180 _17_ RTR  --- 0 AODV 48 [0 ffffffff c 800] ------- [12:255 -1:255 29 0] [0x2 2 1 [25 0] [0 4]] (REQUEST)
r 0.254815247 _6_ RTR  --- 0 AODV 48 [0 ffffffff c 800] ------- [12:255 -1:255 29 0] [0x2 2 1 [25 0] [0 4]] (REQUEST)
r 0.254815247 _18_ RTR  --- 0 AODV 48 [0 ffffffff c 800] ------- [12:255 -1:255 29 0] [0x2 2 1 [25 0] [0 4]] (REQUEST)
r 0.254815313 _5_ RTR  --- 0 AODV 48 [0 ffffffff c 800] ------- [12:255 -1:255 29 0] [0x2 2 1 [25 0] [0 4]] (REQUEST)
r 0.254815313 _19_ RTR  --- 0 AODV 48 [0 ffffffff c 800] ------- [12:255 -1:255 29 0] [0x2 2 1 [25 0] [0 4]] (REQUEST)
r 0.254815380 _4_ RTR  --- 0 AODV 48 [0 ffffffff c 800] ------- [12:255 -1:255 29 0] [0x2 2 1 [25 0] [0 4]] (REQUEST)
r 0.254815380 _20_ RTR  --- 0 AODV 48 [0 ffffffff c 800] ------- [12:255 -1:255 29 0] [0x2 2 1 [25 0] [0 4]] (REQUEST)
r 0.254815447 _3_ RTR  --- 0 AODV 48 [0 ffffffff c 800] ------- [12:255 -1:255 29 0] [0x2 2 1 [25 0] [0 4]] (REQUEST)
r 0.254815447 _21_ RTR  --- 0 AODV 48 [0 ffffffff c 800] ------- [12:255 -1:255 29 0] [0x2 2 1 [25 0] [0 4]] (REQUEST)
r 0.254815513 _2_ RTR  --- 0 AODV 48 [0 ffffffff c 800] ------- [12:255 -1:255 29 0] [0x2 2 1 [25 0] [0 4]] (REQUEST)
r 0.254815513 _22_ RTR  --- 0 AODV 48 [0 ffffffff c 800] ------- [12:255 -1:255 29 0] [0x2 2 1 [25 0] [0 4]] (REQUEST)
r 0.254815580 _1_ RTR  --- 0 AODV 48 [0 ffffffff c 800] ------- [12:255 -1:255 29 0] [0x2 2 1 [25 0] [0 4]] (REQUEST)
r 0.254815580 _23_ RTR  --- 0 AODV 48 [0 ffffffff c 800] ------- [12:255 -1:255 29 0] [0x2 2 1 [25 0] [0 4]] (REQUEST)
r 0.254815647 _0_ RTR  --- 0 AODV 48 [0 ffffffff c 800] ------- [12:255 -1:255 29 0] [0x2 2 1 [25 0] [0 4]] (REQUEST)
r 0.254815647 _24_ RTR  --- 0 AODV 48 [0 ffffffff c 800] ------- [12:255 -1:255 29 0] [0x2 2 1 [25 0] [0 4]] (REQUEST)
r 0.255732980 _12_ RTR  --- 0 AODV 48 [0 ffffffff d 800] ------- [13:255 -1:255 28 0] [0x2 3 1 [25 0] [0 4]] (REQUEST)
r 0.255732980 _14_ RTR  --- 0 AODV 48 [0 ffffffff d 800] ------- [13:255 -1:255 28 0] [0x2 3 1 [25 0] [0 4]] (REQUEST)
r 0.255733047 _11_ RTR  --- 0 AODV 48 [0 ffffffff d 800] ------- [13:255 -1:255 28 0] [0x2 3 1 [25 0] [0 4]] (REQUEST)
r 0.255733047 _15_ RTR  --- 0 AODV 48 [0 ffffffff d 800] ------- [13:255 -1:255 28 0] [0x2 3 1 [25 0] [0 4]] (REQUEST)
r 0.255733113 _10_ RTR  --- 0 AODV 48 [0 ffffffff d 800] ------- [13:255 -1:255 28 0] [0x2 3 1 [25 0] [0 4]] (REQUEST)
r 0.255733113 _16_ RTR  --- 0 AODV 48 [0 ffffffff d 800] ------- [13:255 -1:255 28 0] [0x2 3 1 [25 0] [0 4]] (REQUEST)
r 0.255733180 _9_ RTR  --- 0 AODV 48 [0 ffffffff d 800] ------- [13:255 -1:255 28 0] [0x2 3 1 [25 0] [0 4]] (REQUEST)
r 0.255733180 _17_ RTR  --- 0 AODV 48 [0 ffffffff d 800] ------- [13:255 -1:255 28 0] [0x2 3 1 [25 0] [0 4]] (REQUEST)
r 0.255733247 _8_ RTR  --- 0 AODV 48 [0 ffffffff d 800] ------- [13:255 -1:255 28 0] [0x2 3 1 [25 0] [0 4]] (REQUEST)
r 0.255733247 _18_ RTR  --- 0 AODV 48 [0 ffffffff d 800] ------- [13:255 -1:255 28 0] [0x2 3 1 [25 0] [0 4]] (REQUEST)
r 0.255733313 _7_ RTR  --- 0 AODV 48 [0 ffffffff d 800] ------- [13:255 -1:255 28 0] [0x2 3 1 [25 0] [0 4]] (REQUEST)
r 0.255733313 _19_ RTR  --- 0 AODV 48 [0 ffffffff d 800] ------- [13:255 -1:255 28 0] [0x2 3 1 [25 0] [0 4]] (REQUEST)
r 0.255733380 _6_ RTR  --- 0 AODV 48 [0 ffffffff d 800] ------- [13:255 -1:255 28 0] [0x2 3 1 [25 0] [0 4]] (REQUEST)
r 0.255733380 _20_ RTR  --- 0 AODV 48 [0 ffffffff d 800] ------- [13:255 -1:255 28 0] [0x2 3 1 [25 0] [0 4]] (REQUEST)
r 0.255733447 _5_ RTR  --- 0 AODV 48 [0 ffffffff d 800] ------- [13:255 -1:255 28 0] [0x2 3 1 [25 0] [0 4]] (REQUEST)
r 0.255733447 _21_ RTR  --- 0 AODV 48 [0 ffffffff d 800] ------- [13:255 -1:255 28 0] [0x2 3 1 [25 0] [0 4]] (REQUEST)
r 0.255733513 _4_ RTR  --- 0 AODV 48 [0 ffffffff d 800] ------- [13:255 -1:255 28 0] [0x2 3 1 [25 0] [0 4]] (REQUEST)
r 0.255733513 _22_ RTR  --- 0 AODV 48 [0 ffffffff d 800] ------- [13:255 -1:255 28 0] [0x2 3 1 [25 0] [0 4]] (REQUEST)
r 0.255733580 _3_ RTR  --- 0 AODV 48 [0 ffffffff d 800] ------- [13:255 -1:255 28 0] [0x2 3 1 [25 0] [0 4]] (REQUEST)
r 0.255733580 _23_ RTR  --- 0 AODV 48 [0 ffffffff d 800] ------- [13:255 -1:255 28 0] [0x2 3 1 [25 0] [0 4]] (REQUEST)
r 0.255733647 _2_ RTR  --- 0 AODV 48 [0 ffffffff d 800] ------- [13:255 -1:255 28 0] [0x2 3 1 [25 0] [0 4]] (REQUEST)
r 0.255733647 _24_ RTR  --- 0 AODV 48 [0 ffffffff d 800] ------- [13:255 -1:255 28 0] [0x2 3 1 [25 0] [0 4]] (REQUEST)
r 0.255733713 _1_ RTR  --- 0 AODV 48 [0 ffffffff d 800] ------- [13:255 -1:255 28 0] [0x2 3 1 [25 0] [0 4]] (REQUEST)
r 0.255733713 _25_ RTR  --- 0 AODV 48 [0 ffffffff d 800] ------- [13:255 -1:255 28 0] [0x2 3 1 [25 0] [0 4]] (REQUEST)
s 0.255733713 _25_ RTR  --- 0 AODV 44 [0 0 0 0] ------- [25:255 0:255 30 13] [0x4 1 [25 4] 10.000000] (REPLY)
s 0.255819934 _3_ RTR  --- 0 AODV 48 [0 ffffffff 0 800] ------- [3:255 -1:255 29 0] [0x2 2 1 [25 0] [0 4]] (REQUEST)
s 0.255907631 _24_ RTR  --- 0 AODV 48 [0 ffffffff c 800] ------- [24:255 -1:255 28 0] [0x2 3 1 [25 0] [0 4]] (REQUEST)
s 0.256377859 _14_ RTR  --- 0 AODV 48 [0 ffffffff 2 800] ------- [14:255 -1:255 28 0] [0x2 3 1 [25 0] [0 4]] (REQUEST)
r 0.256711380 _6_ RTR  --- 0 AODV 48 [0 ffffffff 7 800] ------- [7:255 -1:255 29 0] [0x2 2 1 [25 0] [0 4]] (REQUEST)
r 0.256711380 _8_ RTR  --- 0 AODV 48 [0 ffffffff 7 800] ------- [7:255 -1:255 29 0] [0x2 2 1 [25 0] [0 4]] (REQUEST)
r 0.256711447 _5_ RTR  --- 0 AODV 48 [0 ffffffff 7 800] ------- [7:255 -1:255 29 0] [0x2 2 1 [25 0] [0 4]] (REQUEST)
r 0.256711447 _9_ RTR  --- 0 AODV 48 [0 ffffffff 7 800] ------- [7:255 -1:255 29 0] [0x2 2 1 [25 0] [0 4]] (REQUEST)
r 0.256711513 _4_ RTR  --- 0 AODV 48 [0 ffffffff 7 800] ------- [7:255 -1:255 29 0] [0x2 2 1 [25 0] [0 4]] (REQUEST)
r 0.256711513 _10_ RTR  --- 0 AODV 48 [0 ffffffff 7 800] ------- [7:255 -1:255 29 0] [0x2 2 1 [25 0] [0 4]] (REQUEST)
r 0.256711580 _3_ RTR  --- 0 AODV 48 [0 ffffffff 7 800] ------- [7:255 -1:255 29 0] [0x2 2 1 [25 0] [0 4]] (REQUEST)
r 0.256711580 _11_ RTR  --- 0 AODV 48 [0 ffffffff 7 800] ------- [7:255 -1:255 29 0] [0x2 2 1 [25 0] [0 4]] (REQUEST)
r 0.256711647 _2_ RTR  --- 0 AODV 48 [0 ffffffff 7 800] ------- [7:255 -1:255 29 0] [0x2 2 1 [25 0] [0 4]] (REQUEST)
r 0.256711647 _12_ RTR  --- 0 AODV 48 [0 ffffffff 7 800] ------- [7:255 -1:255 29 0] [0x2 2 1 [25 0] [0 4]] (REQUEST)
r 0.256711713 _1_ RTR  --- 0 AODV 48 [0 ffffffff 7 800] ------- [7:255 -1:255 29 0] [0x2 2 1 [25 0] [0 4]] (REQUEST)
r 0.256711713 _13_ RTR  --- 0 AODV 48 [0 ffffffff 7 800] ------- [7:255 -1:255 29 0] [0x2 2 1 [25 0] [0 4]] (REQUEST)
r 0.256711780 _0_ RTR  --- 0 AODV 48 [0 ffffffff 7 800] ------- [7:255 -1:255 29 0] [0x2 2 1 [25 0] [0 4]] (REQUEST)
r 0.256711780 _14_ RTR  --- 0 AODV 48 [0 ffffffff 7 800] ------- [7:255 -1:255 29 0] [0x2 2 1 [25 0] [0 4]] (REQUEST)
r 0.256711847 _15_ RTR  --- 0 AODV 48 [0 ffffffff 7 800] ------- [7:255 -1:255 29 0] [0x2 2 1 [25 0] [0 4]] (REQUEST)
r 0.256711913 _16_ RTR  --- 0 AODV 48 [0 ffffffff 7 800] ------- [7:255 -1:255 29 0] [0x2 2 1 [25 0] [0 4]] (REQUEST)
r 0.256711980 _17_ RTR  --- 0 AODV 48 [0 ffffffff 7 800] ------- [7:255 -1:255 29 0] [0x2 2 1 [25 0] [0 4]] (REQUEST)
r 0.256712047 _18_ RTR  --- 0 AODV 48 [0 ffffffff 7 800] ------- [7:255 -1:255 29 0] [0x2 2 1 [25 0] [0 4]] (REQUEST)
r 0.256712113 _19_ RTR  --- 0 AODV 48 [0 ffffffff 7 800] ------- [7:255 -1:255 29 0] [0x2 2 1 [25 0] [0 4]] (REQUEST)
s 0.256986775 _17_ RTR  --- 0 AODV 48 [0 ffffffff c 800] ------- [17:255 -1:255 28 0] [0x2 3 1 [25 0] [0 4]] (REQUEST)
s 0.257227503 _18_ RTR  --- 0 AODV 48 [0 ffffffff c 800] ------- [18:255 -1:255 28 0] [0x2 3 1 [25 0] [0 4]] (REQUEST)
r 0.257729647 _10_ RTR  --- 0 AODV 48 [0 ffffffff b 800] ------- [11:255 -1:255 29 0] [0x2 2 1 [25 0] [0 4]] (REQUEST)
r 0.257729647 _12_ RTR  --- 0 AODV 48 [0 ffffffff b 800] ------- [11:255 -1:255 29 0] [0x2 2 1 [25 0] [0 4]] (REQUEST)
r 0.257729713 _9_ RTR  --- 0 AODV 48 [0 ffffffff b 800] ------- [11:255 -1:255 29 0] [0x2 2 1 [25 0] [0 4]] (REQUEST)
r 0.257729713 _13_ RTR  --- 0 AODV 48 [0 ffffffff b 800] ------- [11:255 -1:255 29 0] [0x2 2 1 [25 0] [0 4]] (REQUEST)
r 0.257729780 _8_ RTR  --- 0 AODV 48 [0 ffffffff b 800] ------- [11:255 -1:255 29 0] [0x2 2 1 [25 0] [0 4]] (REQUEST)
r 0.257729780 _14_ RTR  --- 0 AODV 48 [0 ffffffff b 800] ------- [11:255 -1:255 29 0] [0x2 2 1 [25 0] [0 4]] (REQUEST)
r 0.257729847 _7_ RTR  --- 0 AODV 48 [0 ffffffff b 800] ------- [11:255 -1:255 29 0] [0x2 2 1 [25 0] [0 4]] (REQUEST)
r 0.257729847 _15_ RTR  --- 0 AODV 48 [0 ffffffff b 800] ------- [11:255 -1:255 29 0] [0x2 2 1 [25 0] [0 4]] (REQUEST)
r 0.257729913 _6_ RTR  --- 0 AODV 48 [0 ffffffff b 800] ------- [11:255 -1:255 29 0] [0x2 2 1 [25 0] [0 4]] (REQUEST)
r 0.257729913 _16_ RTR  --- 0 AODV 48 [0 ffffffff b 800] ------- [11:255 -1:255 29 0] [0x2 2 1 [25 0] [0 4]] (REQUEST)
r 0.257729980 _5_ RTR  --- 0 AODV 48 [0 ffffffff b 800] ------- [11:255 -1:255 29 0] [0x2 2 1 [25 0] [0 4]] (REQUEST)
r 0.257729980 _17_ RTR  --- 0 AODV 48 [0 ffffffff b 800] ------- [11:255 -1:255 29 0] [0x2 2 1 [25 0] [0 4]] (REQUEST)
r 0.257730047 _4_ RTR  --- 0 AODV 48 [0 ffffffff b 800] ------- [11:255 -1:255 29 0] [0x2 2 1 [25 0] [0 4]] (REQUEST)
r 0.257730047 _18_ RTR  --- 0 AODV 48 [0 ffffffff b 800] ------- [11:255 -1:255 29 0] [0x2 2 1 [25 0] [0 4]] (REQUEST)
r 0.257730113 _3_ RTR  --- 0 AODV 48 [0 ffffffff b 800] ------- [11:255 -1:255 29 0] [0x2 2 1 [25 0] [0 4]] (REQUEST)
r 0.257730113 _19_ RTR  --- 0 AODV 48 [0 ffffffff b 800] ------- [11:255 -1:255 29 0] [0x2 2 1 [25 0] [0 4]] (REQUEST)
r 0.257730180 _2_ RTR  --- 0 AODV 48 [0 ffffffff b 800] ------- [11:255 -1:255 29 0] [0x2 2 1 [25 0] [0 4]] (REQUEST)
r 0.257730180 _20_ RTR  --- 0 AODV 48 [0 ffffffff b 800] ------- [11:255 -1:255 29 0] [0x2 2 1 [25 0] [0 4]] (REQUEST)
r 0.257730247 _1_ RTR  --- 0 AODV 48 [0 ffffffff b 800] ------- [11:255 -1:255 29 0] [0x2 2 1 [25 0] [0 4]] (REQUEST)
r 0.257730247 _21_ RTR  --- 0 AODV 48 [0 ffffffff b 800] ------- [11:255 -1:255 29 0] [0x2 2 1 [25 0] [0 4]] (REQUEST)
r 0.257730313 _0_ RTR  --- 0 AODV 48 [0 ffffffff b 800] ------- [11:255 -1:255 29 0] [0x2 2 1 [25 0] [0 4]] (REQUEST)
r 0.257730313 _22_ RTR  --- 0 AODV 48 [0 ffffffff b 800] ------- [11:255 -1:255 29 0] [0x2 2 1 [25 0] [0 4]] (REQUEST)
r 0.257730380 _23_ RTR  --- 0 AODV 48 [0 ffffffff b 800] ------- [11:255 -1:255 29 0] [0x2 2 1 [25 0] [0 4]] (REQUEST)
s 0.257797185 _8_ RTR  --- 0 AODV 48 [0 ffffffff 0 800] ------- [8:255 -1:255 29 0] [0x2 2 1 [25 0] [0 4]] (REQUEST)
r 0.258647780 _8_ RTR  --- 0 AODV 48 [0 ffffffff 9 800] ------- [9:255 -1:255 29 0] [0x2 2 1 [25 0] [0 4]] (REQUEST)
r 0.258647780 _10_ RTR  --- 0 AODV 48 [0 ffffffff 9 800] ------- [9:255 -1:255 29 0] [0x2 2 1 [25 0] [0 4]] (REQUEST)
r 0.258647847 _7_ RTR  --- 0 AODV 48 [0 ffffffff 9 800] ------- [9:255 -1:255 29 0] [0x2 2 1 [25 0] [0 4]] (REQUEST)
r 0.258647847 _11_ RTR  --- 0 AODV 48 [0 ffffffff 9 800] ------- [9:255 -1:255 29 0] [0x2 2 1 [25 0] [0 4]] (REQUEST)
r 0.258647913 _6_ RTR  --- 0 AODV 48 [0 ffffffff 9 800] ------- [9:255 -1:255 29 0] [0x2 2 1 [25 0] [0 4]] (REQUEST)
r 0.258647913 _12_ RTR  --- 0 AODV 48 [0 ffffffff 9 800] ------- [9:255 -1:255 29 0] [0x2 2 1 [25 0] [0 4]] (REQUEST)
r 0.258647980 _5_ RTR  --- 0 AODV 48 [0 ffffffff 9 800] ------- [9:255 -1:255 29 0] [0x2 2 1 [25 0] [0 4]] (REQUEST)
r 0.258647980 _13_ RTR  --- 0 AODV 48 [0 ffffffff 9 800] ------- [9:255 -1:255 29 0] [0x2 2 1 [25 0] [0 4]] (REQUEST)
r 0.258648047 _4_ RTR  --- 0 AODV 48 [0 ffffffff 9 800] ------- [9:255 -1:255 29 0] [0x2 2 1 [25 0] [0 4]] (REQUEST)
r 0.258648047 _14_ RTR  --- 0 AODV 48 [0 ffffffff 9 800] ------- [9:255 -1:255 29 0] [0x2 2 1 [25 0] [0 4]] (REQUEST)
r 0.258648113 _3_ RTR  --- 0 AODV 48 [0 ffffffff 9 800] ------- [9:255 -1:255 29 0] [0x2 2 1 [25 0] [0 4]] (REQUEST)
r 0.258648113 _15_ RTR  --- 0 AODV 48 [0 ffffffff 9 800] ------- [9:255 -1:255 29 0] [0x2 2 1 [25 0] [0 4]] (REQUEST)
r 0.258648180 _2_ RTR  --- 0 AODV 48 [0 ffffffff 9 800] ------- [9:255 -1:255 29 0] [0x2 2 1 [25 0] [0 4]] (REQUEST)
r 0.258648180 _16_ RTR  --- 0 AODV 48 [0 ffffffff 9 800] ------- [9:255 -1:255 29 0] [0x2 2 1 [25 0] [0 4]] (REQUEST)
r 0.258648247 _1_ RTR  --- 0 AODV 48 [0 ffffffff 9 800] ------- [9:255 -1:255 29 0] [0x2 2 1 [25 0] [0 4]] (REQUEST)
r 0.258648247 _17_ RTR  --- 0 AODV 48 [0 ffffffff 9 800] ------- [9:255 -1:255 29 0] [0x2 2 1 [25 0] [0 4]] (REQUEST)
r 0.258648313 _0_ RTR  --- 0 AODV 48 [0 ffffffff 9 800] ------- [9:255 -1:255 29 0] [0x2 2 1 [25 0] [0 4]] (REQUEST)
r 0.258648313 _18_ RTR  --- 0 AODV 48 [0 ffffffff 9 800] ------- [9:255 -1:255 29 0] [0x2 2 1 [25 0] [0 4]] (REQUEST)
r 0.258648380 _19_ RTR  --- 0 AODV 48 [0 ffffffff 9 800] ------- [9:255 -1:255 29 0] [0x2 2 1 [25 0] [0 4]] (REQUEST)
r 0.258648447 _20_ RTR  --- 0 AODV 48 [0 ffffffff 9 800] ------- [9:255 -1:255 29 0] [0x2 2 1 [25 0] [0 4]] (REQUEST)
r 0.258648513 _21_ RTR  --- 0 AODV 48 [0 ffffffff 9 800] ------- [9:255 -1:255 29 0] [0x2 2 1 [25 0] [0 4]] (REQUEST)
s 0.258870771 _23_ RTR  --- 0 AODV 48 [0 ffffffff c 800] ------- [23:255 -1:255 28 0] [0x2 3 1 [25 0] [0 4]] (REQUEST)
s 0.259399821 _4_ RTR  --- 0 AODV 48 [0 ffffffff 0 800] ------- [4:255 -1:255 29 0] [0x2 2 1 [25 0] [0 4]] (REQUEST)
s 0.259573161 _6_ RTR  --- 0 AODV 48 [0 ffffffff 0 800] ------- [6:255 -1:255 29 0] [0x2 2 1 [25 0] [0 4]] (REQUEST)
r 0.259586313 _16_ RTR  --- 0 AODV 48 [0 ffffffff 11 800] ------- [17:255 -1:255 28 0] [0x2 3 1 [25 0] [0 4]] (REQUEST)
r 0.259586313 _18_ RTR  --- 0 AODV 48 [0 ffffffff 11 800] ------- [17:255 -1:255 28 0] [0x2 3 1 [25 0] [0 4]] (REQUEST)
r 0.259586380 _15_ RTR  --- 0 AODV 48 [0 ffffffff 11 800] ------- [17:255 -1:255 28 0] [0x2 3 1 [25 0] [0 4]] (REQUEST)
r 0.259586380 _19_ RTR  --- 0 AODV 48 [0 ffffffff 11 800] ------- [17:255 -1:255 28 0] [0x2 3 1 [25 0] [0 4]] (REQUEST)
r 0.259586447 _14_ RTR  --- 0 AODV 48 [0 ffffffff 11 800] ------- [17:255 -1:255 28 0] [0x2 3 1 [25 0] [0 4]] (REQUEST)
r 0.259586447 _20_ RTR  --- 0 AODV 48 [0 ffffffff 11 800] ------- [17:255 -1:255 28 0] [0x2 3 1 [25 0] [0 4]] (REQUEST)
r 0.259586513 _13_ RTR  --- 0 AODV 48 [0 ffffffff 11 800] ------- [17:255 -1:255 28 0] [0x2 3 1 [25 0] [0 4]] (REQUEST)
r 0.259586513 _21_ RTR  --- 0 AODV 48 [0 ffffffff 11 800] ------- [17:255 -1:255 28 0] [0x2 3 1 [25 0] [0 4]] (REQUEST)
r 0.259586580 _12_ RTR  --- 0 AODV 48 [0 ffffffff 11 800] ------- [17:255 -1:255 28 0] [0x2 3 1 [25 0] [0 4]] (REQUEST)
r 0.259586580 _22_ RTR  --- 0 AODV 48 [0 ffffffff 11 800] ------- [17:255 -1:255 28 0] [0x2 3 1 [25 0] [0 4]] (REQUEST)
r 0.259586647 _11_ RTR  --- 0 AODV 48 [0 ffffffff 11 800] ------- [17:255 -1:255 28 0] [0x2 3 1 [25 0] [0 4]] (REQUEST)
r 0.259586647 _23_ RTR  --- 0 AODV 48 [0 ffffffff 11 800] ------- [17:255 -1:255 28 0] [0x2 3 1 [25 0] [0 4]] (REQUEST)
r 0.259586713 _10_ RTR  --- 0 AODV 48 [0 ffffffff 11 800] ------- [17:255 -1:255 28 0] [0x2 3 1 [25 0] [0 4]] (REQUEST)
r 0.259586713 _24_ RTR  --- 0 AODV 48 [0 ffffffff 11 800] ------- [17:255 -1:255 28 0] [0x2 3 1 [25 0] [0 4]] (REQUEST)
r 0.259586780 _9_ RTR  --- 0 AODV 48 [0 ffffffff 11 800] ------- [17:255 -1:255 28 0] [0x2 3 1 [25 0] [0 4]] (REQUEST)
r 0.259586780 _25_ RTR  --- 0 AODV 48 [0 ffffffff 11 800] ------- [17:255 -1:255 28 0] [0x2 3 1 [25 0] [0 4]] (REQUEST)
r 0.259586847 _8_ RTR  --- 0 AODV 48 [0 ffffffff 11 800] ------- [17:255 -1:255 28 0] [0x2 3 1 [25 0] [0 4]] (REQUEST)
r 0.259586913 _7_ RTR  --- 0 AODV 48 [0 ffffffff 11 800] ------- [17:255 -1:255 28 0] [0x2 3 1 [25 0] [0 4]] (REQUEST)
r 0.259586980 _6_ RTR  --- 0 AODV 48 [0 ffffffff 11 800] ------- [17:255 -1:255 28 0] [0x2 3 1 [25 0] [0 4]] (REQUEST)
r 0.259587047 _5_ RTR  --- 0 AODV 48 [0 ffffffff 11 800] ------- [17:255 -1:255 28 0] [0x2 3 1 [25 0] [0 4]] (REQUEST)
s 0.259771902 _10_ RTR  --- 0 AODV 48 [0 ffffffff 0 800] ------- [10:255 -1:255 29 0] [0x2 2 1 [25 0] [0 4]] (REQUEST)
r 0.260504513 _13_ RTR  --- 0 AODV 48 [0 ffffffff e 800] ------- [14:255 -1:255 28 0] [0x2 3 1 [25 0] [0 4]] (REQUEST)
r 0.260504513 _15_ RTR  --- 0 AODV 48 [0 ffffffff e 800] ------- [14:255 -1:255 28 0] [0x2 3 1 [25 0] [0 4]] (REQUEST)
r 0.260504580 _12_ RTR  --- 0 AODV 48 [0 ffffffff e 800] ------- [14:255 -1:255 28 0] [0x2 3 1 [25 0] [0 4]] (REQUEST)
r 0.260504580 _16_ RTR  --- 0 AODV 48 [0 ffffffff e 800] ------- [14:255 -1:255 28 0] [0x2 3 1 [25 0] [0 4]] (REQUEST)
r 0.260504647 _11_ RTR  --- 0 AODV 48 [0 ffffffff e 800] ------- [14:255 -1:255 28 0] [0x2 3 1 [25 0] [0 4]] (REQUEST)
r 0.260504647 _17_ RTR  --- 0 AODV 48 [0 ffffffff e 800] ------- [14:255 -1:255 28 0] [0x2 3 1 [25 0] [0 4]] (REQUEST)
r 0.260504713 _10_ RTR  --- 0 AODV 48 [0 ffffffff e 800] ------- [14:255 -1:255 28 0] [0x2 3 1 [25 0] [0 4]] (REQUEST)
r 0.260504713 _18_ RTR  --- 0 AODV 48 [0 ffffffff e 800] ------- [14:255 -1:255 28 0] [0x2 3 1 [25 0] [0 4]] (REQUEST)
r 0.260504780 _9_ RTR  --- 0 AODV 48 [0 ffffffff e 800] ------- [14:255 -1:255 28 0] [0x2 3 1 [25 0] [0 4]] (REQUEST)
r 0.260504780 _19_ RTR  --- 0 AODV 48 [0 ffffffff e 800] ------- [14:255 -1:255 28 0] [0x2 3 1 [25 0] [0 4]] (REQUEST)
r 0.260504847 _8_ RTR  --- 0 AODV 48 [0 ffffffff e 800] ------- [14:255 -1:255 28 0] [0x2 3 1 [25 0] [0 4]] (REQUEST)
r 0.260504847 _20_ RTR  --- 0 AODV 48 [0 ffffffff e 800] ------- [14:255 -1:255 28 0] [0x2 3 1 [25 0] [0 4]] (REQUEST)
r 0.260504913 _7_ RTR  --- 0 AODV 48 [0 ffffffff e 800] ------- [14:255 -1:255 28 0] [0x2 3 1 [25 0] [0 4]] (REQUEST)
r 0.260504913 _21_ RTR  --- 0 AODV 48 [0 ffffffff e 800] ------- [14:255 -1:255 28 0] [0x2 3 1 [25 0] [0 4]] (REQUEST)
r 0.260504980 _6_ RTR  --- 0 AODV 48 [0 ffffffff e 800] ------- [14:255 -1:255 28 0] [0x2 3 1 [25 0] [0 4]] (REQUEST)
r 0.260504980 _22_ RTR  --- 0 AODV 48 [0 ffffffff e 800] ------- [14:255 -1:255 28 0] [0x2 3 1 [25 0] [0 4]] (REQUEST)
r 0.260505047 _5_ RTR  --- 0 AODV 48 [0 ffffffff e 800] ------- [14:255 -1:255 28 0] [0x2 3 1 [25 0] [0 4]] (REQUEST)
r 0.260505047 _23_ RTR  --- 0 AODV 48 [0 ffffffff e 800] ------- [14:255 -1:255 28 0] [0x2 3 1 [25 0] [0 4]] (REQUEST)
r 0.260505113 _4_ RTR  --- 0 AODV 48 [0 ffffffff e 800] ------- [14:255 -1:255 28 0] [0x2 3 1 [25 0] [0 4]] (REQUEST)
r 0.260505113 _24_ RTR  --- 0 AODV 48 [0 ffffffff e 800] ------- [14:255 -1:255 28 0] [0x2 3 1 [25 0] [0 4]] (REQUEST)
r 0.260505180 _3_ RTR  --- 0 AODV 48 [0 ffffffff e 800] ------- [14:255 -1:255 28 0] [0x2 3 1 [25 0] [0 4]] (REQUEST)
r 0.260505180 _25_ RTR  --- 0 AODV 48 [0 ffffffff e 800] ------- [14:255 -1:255 28 0] [0x2 3 1 [25 0] [0 4]] (REQUEST)
r 0.260505247 _2_ RTR  --- 0 AODV 48 [0 ffffffff e 800] ------- [14:255 -1:255 28 0] [0x2 3 1 [25 0] [0 4]] (REQUEST)
r 0.261403047 _5_ RTR  --- 0 AODV 48 [0 ffffffff 6 800] ------- [6:255 -1:255 29 0] [0x2 2 1 [25 0] [0 4]] (REQUEST)
r 0.261403047 _7_ RTR  --- 0 AODV 48 [0 ffffffff 6 800] ------- [6:255 -1:255 29 0] [0x2 2 1 [25 0] [0 4]] (REQUEST)
r 0.261403113 _4_ RTR  --- 0 AODV 48 [0 ffffffff 6 800] ------- [6:255 -1:255 29 0] [0x2 2 1 [25 0] [0 4]] (REQUEST)
r 0.261403113 _8_ RTR  --- 0 AODV 48 [0 ffffffff 6 800] ------- [6:255 -1:255 29 0] [0x2 2 1 [25 0] [0 4]] (REQUEST)
r 0.261403180 _3_ RTR  --- 0 AODV 48 [0 ffffffff 6 800] ------- [6:255 -1:255 29 0] [0x2 2 1 [25 0] [0 4]] (REQUEST)
r 0.261403180 _9_ RTR  --- 0 AODV 48 [0 ffffffff 6 800] ------- [6:255 -1:255 29 0] [0x2 2 1 [25 0] [0 4]] (REQUEST)
r 0.261403247 _2_ RTR  --- 0 AODV 48 [0 ffffffff 6 800] ------- [6:255 -1:255 29 0] [0x2 2 1 [25 0] [0 4]] (REQUEST)
r 0.261403247 _10_ RTR  --- 0 AODV 48 [0 ffffffff 6 800] ------- [6:255 -1:255 29 0] [0x2 2 1 [25 0] [0 4]] (REQUEST)
r 0.261403313 _1_ RTR  --- 0 AODV 48 [0 ffffffff 6 800] ------- [6:255 -1:255 29 0] [0x2 2 1 [25 0] [0 4]] (REQUEST)
r 0.261403313 _11_ RTR  --- 0 AODV 48 [0 ffffffff 6 800] ------- [6:255 -1:255 29 0] [0x2 2 1 [25 0] [0 4]] (REQUEST)
r 0.261403380 _0_ RTR  --- 0 AODV 48 [0 ffffffff 6 800] ------- [6:255 -1:255 29 0] [0x2 2 1 [25 0] [0 4]] (REQUEST)
r 0.261403380 _12_ RTR  --- 0 AODV 48 [0 ffffffff 6 800] ------- [6:255 -1:255 29 0] [0x2 2 1 [25 0] [0 4]] (REQUEST)
r 0.261403447 _13_ RTR  --- 0 AODV 48 [0 ffffffff 6 800] ------- [6:255 -1:255 29 0] [0x2 2 1 [25 0] [0 4]] (REQUEST)
r 0.261403513 _14_ RTR  --- 0 AODV 48 [0 ffffffff 6 800] ------- [6:255 -1:255 29 0] [0x2 2 1 [25 0] [0 4]] (REQUEST)
r 0.261403580 _15_ RTR  --- 0 AODV 48 [0 ffffffff 6 800] ------- [6:255 -1:255 29 0] [0x2 2 1 [25 0] [0 4]] (REQUEST)
r 0.261403647 _16_ RTR  --- 0 AODV 48 [0 ffffffff 6 800] ------- [6:255 -1:255 29 0] [0x2 2 1 [25 0] [0 4]] (REQUEST)
r 0.261403713 _17_ RTR  --- 0 AODV 48 [0 ffffffff 6 800] ------- [6:255 -1:255 29 0] [0x2 2 1 [25 0] [0 4]] (REQUEST)
r 0.261403780 _18_ RTR  --- 0 AODV 48 [0 ffffffff 6 800] ------- [6:255 -1:255 29 0] [0x2 2 1 [25 0] [0 4]] (REQUEST)
s 0.261588869 _20_ RTR  --- 0 AODV 48 [0 ffffffff c 800] ------- [20:255 -1:255 28 0] [0x2 3 1 [25 0] [0 4]] (REQUEST)
r 0.262361847 _17_ RTR  --- 0 AODV 48 [0 ffffffff 12 800] ------- [18:255 -1:255 28 0] [0x2 3 1 [25 0] [0 4]] (REQUEST)
r 0.262361847 _19_ RTR  --- 0 AODV 48 [0 ffffffff 12 800] ------- [18:255 -1:255 28 0] [0x2 3 1 [25 0] [0 4]] (REQUEST)
r 0.262361913 _16_ RTR  --- 0 AODV 48 [0 ffffffff 12 800] ------- [18:255 -1:255 28 0] [0x2 3 1 [25 0] [0 4]] (REQUEST)
r 0.262361913 _20_ RTR  --- 0 AODV 48 [0 ffffffff 12 800] ------- [18:255 -1:255 28 0] [0x2 3 1 [25 0] [0 4]] (REQUEST)
r 0.262361980 _15_ RTR  --- 0 AODV 48 [0 ffffffff 12 800] ------- [18:255 -1:255 28 0] [0x2 3 1 [25 0] [0 4]] (REQUEST)
r 0.262361980 _21_ RTR  --- 0 AODV 48 [0 ffffffff 12 800] ------- [18:255 -1:255 28 0] [0x2 3 1 [25 0] [0 4]] (REQUEST)
r 0.262362047 _14_ RTR  --- 0 AODV 48 [0 ffffffff 12 800] ------- [18:255 -1:255 28 0] [0x2 3 1 [25 0] [0 4]] (REQUEST)
r 0.262362047 _22_ RTR  --- 0 AODV 48 [0 ffffffff 12 800] ------- [18:255 -1:255 28 0] [0x2 3 1 [25 0] [0 4]] (REQUEST)
r 0.262362113 _13_ RTR  --- 0 AODV 48 [0 ffffffff 12 800] ------- [18:255 -1:255 28 0] [0x2 3 1 [25 0] [0 4]] (REQUEST)
r 0.262362113 _23_ RTR  --- 0 AODV 48 [0 ffffffff 12 800] ------- [18:255 -1:255 28 0] [0x2 3 1 [25 0] [0 4]] (REQUEST)
r 0.262362180 _12_ RTR  --- 0 AODV 48 [0 ffffffff 12 800] ------- [18:255 -1:255 28 0] [0x2 3 1 [25 0] [0 4]] (REQUEST)
r 0.262362180 _24_ RTR  --- 0 AODV 48 [0 ffffffff 12 800] ------- [18:255 -1:255 28 0] [0x2 3 1 [25 0] [0 4]] (REQUEST)
r 0.262362247 _11_ RTR  --- 0 AODV 48 [0 ffffffff 12 800] ------- [18:255 -1:255 28 0] [0x2 3 1 [25 0] [0 4]] (REQUEST)
r 0.262362247 _25_ RTR  --- 0 AODV 48 [0 ffffffff 12 800] ------- [18:255 -1:255 28 0] [0x2 3 1 [25 0] [0 4]] (REQUEST)
r 0.262362313 _10_ RTR  --- 0 AODV 48 [0 ffffffff 12 800] ------- [18:255 -1:255 28 0] [0x2 3 1 [25 0] [0 4]] (REQUEST)
r 0.262362380 _9_ RTR  --- 0 AODV 48 [0 ffffffff 12 800] ------- [18:255 -1:255 28 0] [0x2 3 1 [25 0] [0 4]] (REQUEST)
r 0.262362447 _8_ RTR  --- 0 AODV 48 [0 ffffffff 12 800] ------- [18:255 -1:255 28 0] [0x2 3 1 [25 0] [0 4]] (REQUEST)
r 0.262362513 _7_ RTR  --- 0 AODV 48 [0 ffffffff 12 800] ------- [18:255 -1:255 28 0] [0x2 3 1 [25 0] [0 4]] (REQUEST)
r 0.262362580 _6_ RTR  --- 0 AODV 48 [0 ffffffff 12 800] ------- [18:255 -1:255 28 0] [0x2 3 1 [25 0] [0 4]] (REQUEST)
s 0.262437766 _21_ RTR  --- 0 AODV 48 [0 ffffffff c 800] ------- [21:255 -1:255 28 0] [0x2 3 1 [25 0] [0 4]] (REQUEST)