+ 0.25 0 1 tcp 2231 ------- 0 0.0 1.0 0 0
- 0.25 0 1 tcp 2231 ------- 0 0.0 1.0 0 0
+ 0.25 0 1 tcp 2271 ------- 0 0.0 1.0 1 1
+ 0.25 0 1 tcp 2271 ------- 0 0.0 1.0 2 2
+ 0.25 0 1 tcp 2271 ------- 0 0.0 1.0 3 3
+ 0.25 0 1 tcp 2271 ------- 0 0.0 1.0 4 4
+ 0.25 0 1 tcp 2271 ------- 0 0.0 1.0 5 5
+ 0.25 0 1 tcp 2271 ------- 0 0.0 1.0 6 6
+ 0.25 0 1 tcp 2271 ------- 0 0.0 1.0 7 7
+ 0.25 0 1 tcp 2271 ------- 0 0.0 1.0 8 8
+ 0.25 0 1 tcp 2271 ------- 0 0.0 1.0 9 9
+ 0.25 0 1 tcp 2271 ------- 0 0.0 1.0 10 10
+ 0.25 0 1 tcp 2271 ------- 0 0.0 1.0 11 11
+ 0.25 0 1 tcp 2271 ------- 0 0.0 1.0 12 12
+ 0.25 0 1 tcp 2271 ------- 0 0.0 1.0 13 13
+ 0.25 0 1 tcp 2271 ------- 0 0.0 1.0 14 14
+ 0.25 0 1 tcp 2271 ------- 0 0.0 1.0 15 15
+ 0.25 0 1 tcp 2271 ------- 0 0.0 1.0 16 16
+ 0.25 0 1 tcp 2271 ------- 0 0.0 1.0 17 17
+ 0.25 0 1 tcp 2271 ------- 0 0.0 1.0 18 18
+ 0.25 0 1 tcp 2271 ------- 0 0.0 1.0 19 19
+ 0.25 0 1 tcp 2271 ------- 0 0.0 1.0 20 20
+ 0.25 0 1 tcp 2271 ------- 0 0.0 1.0 21 21
+ 0.25 0 1 tcp 2271 ------- 0 0.0 1.0 22 22
+ 0.25 0 1 tcp 2271 ------- 0 0.0 1.0 23 23
+ 0.25 0 1 tcp 2271 ------- 0 0.0 1.0 24 24
+ 0.25 0 1 tcp 2271 ------- 0 0.0 1.0 25 25
+ 0.25 0 1 tcp 2271 ------- 0 0.0 1.0 26 26
+ 0.25 0 1 tcp 2271 ------- 0 0.0 1.0 27 27
+ 0.25 0 1 tcp 2271 ------- 0 0.0 1.0 28 28
+ 0.25 0 1 tcp 2271 ------- 0 0.0 1.0 29 29
+ 0.25 0 1 tcp 2271 ------- 0 0.0 1.0 30 30
+ 0.25 0 1 tcp 2271 ------- 0 0.0 1.0 31 31
+ 0.25 0 1 tcp 2271 ------- 0 0.0 1.0 32 32
+ 0.25 0 1 tcp 2271 ------- 0 0.0 1.0 33 33
+ 0.25 0 1 tcp 2271 ------- 0 0.0 1.0 34 34
+ 0.25 0 1 tcp 2271 ------- 0 0.0 1.0 35 35
+ 0.25 0 1 tcp 2271 ------- 0 0.0 1.0 36 36
+ 0.25 0 1 tcp 2271 ------- 0 0.0 1.0 37 37
+ 0.25 0 1 tcp 2271 ------- 0 0.0 1.0 38 38
+ 0.25 0 1 tcp 2271 ------- 0 0.0 1.0 39 39
+ 0.25 0 1 tcp 2271 ------- 0 0.0 1.0 40 40
+ 0.25 0 1 tcp 2271 ------- 0 0.0 1.0 41 41
+ 0.25 0 1 tcp 2271 ------- 0 0.0 1.0 42 42
+ 0.25 0 1 tcp 2271 ------- 0 0.0 1.0 43 43
+ 0.25 0 1 tcp 2271 ------- 0 0.0 1.0 44 44
+ 0.25 0 1 tcp 2271 ------- 0 0.0 1.0 45 45
+ 0.25 0 1 tcp 2271 ------- 0 0.0 1.0 46 46
+ 0.25 0 1 tcp 2271 ------- 0 0.0 1.0 47 47
+ 0.25 0 1 tcp 2271 ------- 0 0.0 1.0 48 48
+ 0.25 0 1 tcp 2271 ------- 0 0.0 1.0 49 49
+ 0.25 0 1 tcp 2271 ------- 0 0.0 1.0 50 50
+ 0.25 0 1 tcp 2271 ------- 0 0.0 1.0 51 51
+ 0.25 0 1 tcp 2271 ------- 0 0.0 1.0 52 52
+ 0.25 0 1 tcp 2271 ------- 0 0.0 1.0 53 53
+ 0.25 0 1 tcp 2271 ------- 0 0.0 1.0 54 54
+ 0.25 0 1 tcp 2271 ------- 0 0.0 1.0 55 55
+ 0.25 0 1 tcp 2271 ------- 0 0.0 1.0 56 56
+ 0.25 0 1 tcp 2271 ------- 0 0.0 1.0 57 57
+ 0.25 0 1 tcp 2271 ------- 0 0.0 1.0 58 58
+ 0.25 0 1 tcp 2271 ------- 0 0.0 1.0 59 59
+ 0.25 0 1 tcp 2271 ------- 0 0.0 1.0 60 60
+ 0.25 0 1 tcp 2271 ------- 0 0.0 1.0 61 61
+ 0.25 0 1 tcp 2271 ------- 0 0.0 1.0 62 62
+ 0.25 0 1 tcp 2271 ------- 0 0.0 1.0 63 63
+ 0.25 0 1 tcp 2271 ------- 0 0.0 1.0 64 64
+ 0.25 0 1 tcp 2271 ------- 0 0.0 1.0 65 65
+ 0.25 0 1 tcp 2271 ------- 0 0.0 1.0 66 66
+ 0.25 0 1 tcp 2271 ------- 0 0.0 1.0 67 67
+ 0.25 0 1 tcp 2271 ------- 0 0.0 1.0 68 68
+ 0.25 0 1 tcp 2271 ------- 0 0.0 1.0 69 69
+ 0.25 0 1 tcp 2271 ------- 0 0.0 1.0 70 70
+ 0.25 0 1 tcp 2271 ------- 0 0.0 1.0 71 71
+ 0.25 0 1 tcp 2271 ------- 0 0.0 1.0 72 72
+ 0.25 0 1 tcp 2271 ------- 0 0.0 1.0 73 73
+ 0.25 0 1 tcp 2271 ------- 0 0.0 1.0 74 74
+ 0.25 0 1 tcp 2271 ------- 0 0.0 1.0 75 75
+ 0.25 0 1 tcp 2271 ------- 0 0.0 1.0 76 76
+ 0.25 0 1 tcp 2271 ------- 0 0.0 1.0 77 77
+ 0.25 0 1 tcp 2271 ------- 0 0.0 1.0 78 78
+ 0.25 0 1 tcp 2271 ------- 0 0.0 1.0 79 79
+ 0.25 0 1 tcp 2271 ------- 0 0.0 1.0 80 80
+ 0.25 0 1 tcp 2271 ------- 0 0.0 1.0 81 81
+ 0.25 0 1 tcp 2271 ------- 0 0.0 1.0 82 82
+ 0.25 0 1 tcp 2271 ------- 0 0.0 1.0 83 83
+ 0.25 0 1 tcp 2271 ------- 0 0.0 1.0 84 84
+ 0.25 0 1 tcp 2271 ------- 0 0.0 1.0 85 85
+ 0.25 0 1 tcp 2271 ------- 0 0.0 1.0 86 86
+ 0.25 0 1 tcp 2271 ------- 0 0.0 1.0 87 87
+ 0.25 0 1 tcp 2271 ------- 0 0.0 1.0 88 88
+ 0.25 0 1 tcp 2271 ------- 0 0.0 1.0 89 89
+ 0.25 0 1 tcp 2271 ------- 0 0.0 1.0 90 90
+ 0.25 0 1 tcp 2271 ------- 0 0.0 1.0 91 91
+ 0.25 0 1 tcp 2271 ------- 0 0.0 1.0 92 92
+ 0.25 0 1 tcp 2271 ------- 0 0.0 1.0 93 93
+ 0.25 0 1 tcp 2271 ------- 0 0.0 1.0 94 94
+ 0.25 0 1 tcp 2271 ------- 0 0.0 1.0 95 95
+ 0.25 0 1 tcp 2271 ------- 0 0.0 1.0 96 96
+ 0.25 0 1 tcp 2271 ------- 0 0.0 1.0 97 97
+ 0.25 0 1 tcp 2271 ------- 0 0.0 1.0 98 98
+ 0.25 0 1 tcp 2271 ------- 0 0.0 1.0 99 99
+ 0.25 0 1 tcp 2271 ------- 0 0.0 1.0 100 100
+ 0.25 0 1 tcp 2271 ------- 0 0.0 1.0 101 101
+ 0.25 0 1 tcp 2271 ------- 0 0.0 1.0 102 102
+ 0.25 0 1 tcp 2271 ------- 0 0.0 1.0 103 103
+ 0.25 0 1 tcp 2271 ------- 0 0.0 1.0 104 104
+ 0.25 0 1 tcp 2271 ------- 0 0.0 1.0 105 105
+ 0.25 0 1 tcp 2271 ------- 0 0.0 1.0 106 106
+ 0.25 0 1 tcp 2271 ------- 0 0.0 1.0 107 107
+ 0.25 0 1 tcp 2271 ------- 0 0.0 1.0 108 108
+ 0.25 0 1 tcp 2271 ------- 0 0.0 1.0 109 109
+ 0.25 0 1 tcp 2271 ------- 0 0.0 1.0 110 110
+ 0.25 0 1 tcp 2271 ------- 0 0.0 1.0 111 111
+ 0.25 0 1 tcp 2271 ------- 0 0.0 1.0 112 112
+ 0.25 0 1 tcp 2271 ------- 0 0.0 1.0 113 113
+ 0.25 0 1 tcp 2271 ------- 0 0.0 1.0 114 114
+ 0.25 0 1 tcp 2271 ------- 0 0.0 1.0 115 115
+ 0.25 0 1 tcp 2271 ------- 0 0.0 1.0 116 116
+ 0.25 0 1 tcp 2271 ------- 0 0.0 1.0 117 117
+ 0.25 0 1 tcp 2271 ------- 0 0.0 1.0 118 118
+ 0.25 0 1 tcp 2271 ------- 0 0.0 1.0 119 119
+ 0.25 0 1 tcp 2271 ------- 0 0.0 1.0 120 120
+ 0.25 0 1 tcp 2271 ------- 0 0.0 1.0 121 121
+ 0.25 0 1 tcp 2271 ------- 0 0.0 1.0 122 122
+ 0.25 0 1 tcp 2271 ------- 0 0.0 1.0 123 123
+ 0.25 0 1 tcp 2271 ------- 0 0.0 1.0 124 124
+ 0.25 0 1 tcp 2271 ------- 0 0.0 1.0 125 125
+ 0.25 0 1 tcp 2271 ------- 0 0.0 1.0 126 126
- 0.250637 0 1 tcp 2271 ------- 0 0.0 1.0 1 1
- 0.251286 0 1 tcp 2271 ------- 0 0.0 1.0 2 2
- 0.251935 0 1 tcp 2271 ------- 0 0.0 1.0 3 3
- 0.252584 0 1 tcp 2271 ------- 0 0.0 1.0 4 4
- 0.253233 0 1 tcp 2271 ------- 0 0.0 1.0 5 5
- 0.253882 0 1 tcp 2271 ------- 0 0.0 1.0 6 6
- 0.254531 0 1 tcp 2271 ------- 0 0.0 1.0 7 7
- 0.255179 0 1 tcp 2271 ------- 0 0.0 1.0 8 8
- 0.255828 0 1 tcp 2271 ------- 0 0.0 1.0 9 9
- 0.256477 0 1 tcp 2271 ------- 0 0.0 1.0 10 10
- 0.257126 0 1 tcp 2271 ------- 0 0.0 1.0 11 11
- 0.257775 0 1 tcp 2271 ------- 0 0.0 1.0 12 12
- 0.258424 0 1 tcp 2271 ------- 0 0.0 1.0 13 13
- 0.259073 0 1 tcp 2271 ------- 0 0.0 1.0 14 14
- 0.259721 0 1 tcp 2271 ------- 0 0.0 1.0 15 15
- 0.26037 0 1 tcp 2271 ------- 0 0.0 1.0 16 16
- 0.261019 0 1 tcp 2271 ------- 0 0.0 1.0 17 17
- 0.261668 0 1 tcp 2271 ------- 0 0.0 1.0 18 18
- 0.262317 0 1 tcp 2271 ------- 0 0.0 1.0 19 19
- 0.262966 0 1 tcp 2271 ------- 0 0.0 1.0 20 20
- 0.263615 0 1 tcp 2271 ------- 0 0.0 1.0 21 21
- 0.264263 0 1 tcp 2271 ------- 0 0.0 1.0 22 22
- 0.264912 0 1 tcp 2271 ------- 0 0.0 1.0 23 23
- 0.265561 0 1 tcp 2271 ------- 0 0.0 1.0 24 24
- 0.26621 0 1 tcp 2271 ------- 0 0.0 1.0 25 25
- 0.266859 0 1 tcp 2271 ------- 0 0.0 1.0 26 26
- 0.267508 0 1 tcp 2271 ------- 0 0.0 1.0 27 27
- 0.268157 0 1 tcp 2271 ------- 0 0.0 1.0 28 28
- 0.268805 0 1 tcp 2271 ------- 0 0.0 1.0 29 29
- 0.269454 0 1 tcp 2271 ------- 0 0.0 1.0 30 30
- 0.270103 0 1 tcp 2271 ------- 0 0.0 1.0 31 31
- 0.270752 0 1 tcp 2271 ------- 0 0.0 1.0 32 32
- 0.271401 0 1 tcp 2271 ------- 0 0.0 1.0 33 33
- 0.27205 0 1 tcp 2271 ------- 0 0.0 1.0 34 34
- 0.272699 0 1 tcp 2271 ------- 0 0.0 1.0 35 35
- 0.273347 0 1 tcp 2271 ------- 0 0.0 1.0 36 36
- 0.273996 0 1 tcp 2271 ------- 0 0.0 1.0 37 37
- 0.274645 0 1 tcp 2271 ------- 0 0.0 1.0 38 38
- 0.275294 0 1 tcp 2271 ------- 0 0.0 1.0 39 39
- 0.275943 0 1 tcp 2271 ------- 0 0.0 1.0 40 40
- 0.276592 0 1 tcp 2271 ------- 0 0.0 1.0 41 41
- 0.277241 0 1 tcp 2271 ------- 0 0.0 1.0 42 42
- 0.277889 0 1 tcp 2271 ------- 0 0.0 1.0 43 43
- 0.278538 0 1 tcp 2271 ------- 0 0.0 1.0 44 44
- 0.279187 0 1 tcp 2271 ------- 0 0.0 1.0 45 45
- 0.279836 0 1 tcp 2271 ------- 0 0.0 1.0 46 46
- 0.280485 0 1 tcp 2271 ------- 0 0.0 1.0 47 47
- 0.281134 0 1 tcp 2271 ------- 0 0.0 1.0 48 48
- 0.281783 0 1 tcp 2271 ------- 0 0.0 1.0 49 49
- 0.282431 0 1 tcp 2271 ------- 0 0.0 1.0 50 50
- 0.28308 0 1 tcp 2271 ------- 0 0.0 1.0 51 51
- 0.283729 0 1 tcp 2271 ------- 0 0.0 1.0 52 52
- 0.284378 0 1 tcp 2271 ------- 0 0.0 1.0 53 53
- 0.285027 0 1 tcp 2271 ------- 0 0.0 1.0 54 54
- 0.285676 0 1 tcp 2271 ------- 0 0.0 1.0 55 55
- 0.286325 0 1 tcp 2271 ------- 0 0.0 1.0 56 56
- 0.286973 0 1 tcp 2271 ------- 0 0.0 1.0 57 57
- 0.287622 0 1 tcp 2271 ------- 0 0.0 1.0 58 58
- 0.288271 0 1 tcp 2271 ------- 0 0.0 1.0 59 59
- 0.28892 0 1 tcp 2271 ------- 0 0.0 1.0 60 60
- 0.289569 0 1 tcp 2271 ------- 0 0.0 1.0 61 61
- 0.290218 0 1 tcp 2271 ------- 0 0.0 1.0 62 62
- 0.290867 0 1 tcp 2271 ------- 0 0.0 1.0 63 63
- 0.291515 0 1 tcp 2271 ------- 0 0.0 1.0 64 64
- 0.292164 0 1 tcp 2271 ------- 0 0.0 1.0 65 65
- 0.292813 0 1 tcp 2271 ------- 0 0.0 1.0 66 66
- 0.293462 0 1 tcp 2271 ------- 0 0.0 1.0 67 67
- 0.294111 0 1 tcp 2271 ------- 0 0.0 1.0 68 68
- 0.29476 0 1 tcp 2271 ------- 0 0.0 1.0 69 69
- 0.295409 0 1 tcp 2271 ------- 0 0.0 1.0 70 70
- 0.296057 0 1 tcp 2271 ------- 0 0.0 1.0 71 71
- 0.296706 0 1 tcp 2271 ------- 0 0.0 1.0 72 72
- 0.297355 0 1 tcp 2271 ------- 0 0.0 1.0 73 73
- 0.298004 0 1 tcp 2271 ------- 0 0.0 1.0 74 74
- 0.298653 0 1 tcp 2271 ------- 0 0.0 1.0 75 75
- 0.299302 0 1 tcp 2271 ------- 0 0.0 1.0 76 76
- 0.299951 0 1 tcp 2271 ------- 0 0.0 1.0 77 77
- 0.300599 0 1 tcp 2271 ------- 0 0.0 1.0 78 78
- 0.301248 0 1 tcp 2271 ------- 0 0.0 1.0 79 79
- 0.301897 0 1 tcp 2271 ------- 0 0.0 1.0 80 80
- 0.302546 0 1 tcp 2271 ------- 0 0.0 1.0 81 81
- 0.303195 0 1 tcp 2271 ------- 0 0.0 1.0 82 82
- 0.303844 0 1 tcp 2271 ------- 0 0.0 1.0 83 83
- 0.304493 0 1 tcp 2271 ------- 0 0.0 1.0 84 84
- 0.305141 0 1 tcp 2271 ------- 0 0.0 1.0 85 85
- 0.30579 0 1 tcp 2271 ------- 0 0.0 1.0 86 86
- 0.306439 0 1 tcp 2271 ------- 0 0.0 1.0 87 87
- 0.307088 0 1 tcp 2271 ------- 0 0.0 1.0 88 88
- 0.307737 0 1 tcp 2271 ------- 0 0.0 1.0 89 89
- 0.308386 0 1 tcp 2271 ------- 0 0.0 1.0 90 90
- 0.309035 0 1 tcp 2271 ------- 0 0.0 1.0 91 91
- 0.309683 0 1 tcp 2271 ------- 0 0.0 1.0 92 92
- 0.310332 0 1 tcp 2271 ------- 0 0.0 1.0 93 93
- 0.310981 0 1 tcp 2271 ------- 0 0.0 1.0 94 94
- 0.31163 0 1 tcp 2271 ------- 0 0.0 1.0 95 95
- 0.312279 0 1 tcp 2271 ------- 0 0.0 1.0 96 96
- 0.312928 0 1 tcp 2271 ------- 0 0.0 1.0 97 97
- 0.313577 0 1 tcp 2271 ------- 0 0.0 1.0 98 98
- 0.314225 0 1 tcp 2271 ------- 0 0.0 1.0 99 99
- 0.314874 0 1 tcp 2271 ------- 0 0.0 1.0 100 100
- 0.315523 0 1 tcp 2271 ------- 0 0.0 1.0 101 101
- 0.316172 0 1 tcp 2271 ------- 0 0.0 1.0 102 102
- 0.316821 0 1 tcp 2271 ------- 0 0.0 1.0 103 103
- 0.31747 0 1 tcp 2271 ------- 0 0.0 1.0 104 104
- 0.318119 0 1 tcp 2271 ------- 0 0.0 1.0 105 105
- 0.318767 0 1 tcp 2271 ------- 0 0.0 1.0 106 106
- 0.319416 0 1 tcp 2271 ------- 0 0.0 1.0 107 107
- 0.320065 0 1 tcp 2271 ------- 0 0.0 1.0 108 108
- 0.320714 0 1 tcp 2271 ------- 0 0.0 1.0 109 109
- 0.321363 0 1 tcp 2271 ------- 0 0.0 1.0 110 110
- 0.322012 0 1 tcp 2271 ------- 0 0.0 1.0 111 111
- 0.322661 0 1 tcp 2271 ------- 0 0.0 1.0 112 112
- 0.323309 0 1 tcp 2271 ------- 0 0.0 1.0 113 113
- 0.323958 0 1 tcp 2271 ------- 0 0.0 1.0 114 114
- 0.324607 0 1 tcp 2271 ------- 0 0.0 1.0 115 115
- 0.325256 0 1 tcp 2271 ------- 0 0.0 1.0 116 116
- 0.325905 0 1 tcp 2271 ------- 0 0.0 1.0 117 117
- 0.326554 0 1 tcp 2271 ------- 0 0.0 1.0 118 118
- 0.327203 0 1 tcp 2271 ------- 0 0.0 1.0 119 119
- 0.327851 0 1 tcp 2271 ------- 0 0.0 1.0 120 120
- 0.3285 0 1 tcp 2271 ------- 0 0.0 1.0 121 121
- 0.329149 0 1 tcp 2271 ------- 0 0.0 1.0 122 122
- 0.329798 0 1 tcp 2271 ------- 0 0.0 1.0 123 123
- 0.330447 0 1 tcp 2271 ------- 0 0.0 1.0 124 124
- 0.331096 0 1 tcp 2271 ------- 0 0.0 1.0 125 125
- 0.331745 0 1 tcp 2271 ------- 0 0.0 1.0 126 126
r 0.450637 0 1 tcp 2231 ------- 0 0.0 1.0 0 0
+ 0.450637 1 0 ack 40 ------- 0 1.0 0.0 0 127
- 0.450637 1 0 ack 40 ------- 0 1.0 0.0 0 127
r 0.451286 0 1 tcp 2271 ------- 0 0.0 1.0 1 1
+ 0.451286 1 0 ack 40 ------- 0 1.0 0.0 1 128
- 0.451286 1 0 ack 40 ------- 0 1.0 0.0 1 128
r 0.451935 0 1 tcp 2271 ------- 0 0.0 1.0 2 2
+ 0.451935 1 0 ack 40 ------- 0 1.0 0.0 2 129
- 0.451935 1 0 ack 40 ------- 0 1.0 0.0 2 129
r 0.452584 0 1 tcp 2271 ------- 0 0.0 1.0 3 3
+ 0.452584 1 0 ack 40 ------- 0 1.0 0.0 3 130
- 0.452584 1 0 ack 40 ------- 0 1.0 0.0 3 130
r 0.453233 0 1 tcp 2271 ------- 0 0.0 1.0 4 4
+ 0.453233 1 0 ack 40 ------- 0 1.0 0.0 4 131
- 0.453233 1 0 ack 40 ------- 0 1.0 0.0 4 131
r 0.453882 0 1 tcp 2271 ------- 0 0.0 1.0 5 5
+ 0.453882 1 0 ack 40 ------- 0 1.0 0.0 5 132
- 0.453882 1 0 ack 40 ------- 0 1.0 0.0 5 132
r 0.454531 0 1 tcp 2271 ------- 0 0.0 1.0 6 6
+ 0.454531 1 0 ack 40 ------- 0 1.0 0.0 6 133
- 0.454531 1 0 ack 40 ------- 0 1.0 0.0 6 133
r 0.455179 0 1 tcp 2271 ------- 0 0.0 1.0 7 7
+ 0.455179 1 0 ack 40 ------- 0 1.0 0.0 7 134
- 0.455179 1 0 ack 40 ------- 0 1.0 0.0 7 134
r 0.455828 0 1 tcp 2271 ------- 0 0.0 1.0 8 8
+ 0.455828 1 0 ack 40 ------- 0 1.0 0.0 8 135
- 0.455828 1 0 ack 40 ------- 0 1.0 0.0 8 135
r 0.456477 0 1 tcp 2271 ------- 0 0.0 1.0 9 9
+ 0.456477 1 0 ack 40 ------- 0 1.0 0.0 9 136
- 0.456477 1 0 ack 40 ------- 0 1.0 0.0 9 136
r 0.457126 0 1 tcp 2271 ------- 0 0.0 1.0 10 10
+ 0.457126 1 0 ack 40 ------- 0 1.0 0.0 10 137
- 0.457126 1 0 ack 40 ------- 0 1.0 0.0 10 137
r 0.457775 0 1 tcp 2271 ------- 0 0.0 1.0 11 11
+ 0.457775 1 0 ack 40 ------- 0 1.0 0.0 11 138
- 0.457775 1 0 ack 40 ------- 0 1.0 0.0 11 138
r 0.458424 0 1 tcp 2271 ------- 0 0.0 1.0 12 12
+ 0.458424 1 0 ack 40 ------- 0 1.0 0.0 12 139
- 0.458424 1 0 ack 40 ------- 0 1.0 0.0 12 139
r 0.459073 0 1 tcp 2271 ------- 0 0.0 1.0 13 13
+ 0.459073 1 0 ack 40 ------- 0 1.0 0.0 13 140
- 0.459073 1 0 ack 40 ------- 0 1.0 0.0 13 140
r 0.459721 0 1 tcp 2271 ------- 0 0.0 1.0 14 14
+ 0.459721 1 0 ack 40 ------- 0 1.0 0.0 14 141
- 0.459721 1 0 ack 40 ------- 0 1.0 0.0 14 141
r 0.46037 0 1 tcp 2271 ------- 0 0.0 1.0 15 15
+ 0.46037 1 0 ack 40 ------- 0 1.0 0.0 15 142
- 0.46037 1 0 ack 40 ------- 0 1.0 0.0 15 142
r 0.461019 0 1 tcp 2271 ------- 0 0.0 1.0 16 16
+ 0.461019 1 0 ack 40 ------- 0 1.0 0.0 16 143
- 0.461019 1 0 ack 40 ------- 0 1.0 0.0 16 143
r 0.461668 0 1 tcp 2271 ------- 0 0.0 1.0 17 17
+ 0.461668 1 0 ack 40 ------- 0 1.0 0.0 17 144
- 0.461668 1 0 ack 40 ------- 0 1.0 0.0 17 144
r 0.462317 0 1 tcp 2271 ------- 0 0.0 1.0 18 18
+ 0.462317 1 0 ack 40 ------- 0 1.0 0.0 18 145
- 0.462317 1 0 ack 40 ------- 0 1.0 0.0 18 145
r 0.462966 0 1 tcp 2271 ------- 0 0.0 1.0 19 19
+ 0.462966 1 0 ack 40 ------- 0 1.0 0.0 19 146
- 0.462966 1 0 ack 40 ------- 0 1.0 0.0 19 146
r 0.463615 0 1 tcp 2271 ------- 0 0.0 1.0 20 20
+ 0.463615 1 0 ack 40 ------- 0 1.0 0.0 20 147
- 0.463615 1 0 ack 40 ------- 0 1.0 0.0 20 147
r 0.464263 0 1 tcp 2271 ------- 0 0.0 1.0 21 21
+ 0.464263 1 0 ack 40 ------- 0 1.0 0.0 21 148
- 0.464263 1 0 ack 40 ------- 0 1.0 0.0 21 148
r 0.464912 0 1 tcp 2271 ------- 0 0.0 1.0 22 22
+ 0.464912 1 0 ack 40 ------- 0 1.0 0.0 22 149
- 0.464912 1 0 ack 40 ------- 0 1.0 0.0 22 149
r 0.465561 0 1 tcp 2271 ------- 0 0.0 1.0 23 23
+ 0.465561 1 0 ack 40 ------- 0 1.0 0.0 23 150
- 0.465561 1 0 ack 40 ------- 0 1.0 0.0 23 150
r 0.46621 0 1 tcp 2271 ------- 0 0.0 1.0 24 24
+ 0.46621 1 0 ack 40 ------- 0 1.0 0.0 24 151
- 0.46621 1 0 ack 40 ------- 0 1.0 0.0 24 151
r 0.466859 0 1 tcp 2271 ------- 0 0.0 1.0 25 25
+ 0.466859 1 0 ack 40 ------- 0 1.0 0.0 25 152
- 0.466859 1 0 ack 40 ------- 0 1.0 0.0 25 152
r 0.467508 0 1 tcp 2271 ------- 0 0.0 1.0 26 26
+ 0.467508 1 0 ack 40 ------- 0 1.0 0.0 26 153
- 0.467508 1 0 ack 40 ------- 0 1.0 0.0 26 153
r 0.468157 0 1 tcp 2271 ------- 0 0.0 1.0 27 27
+ 0.468157 1 0 ack 40 ------- 0 1.0 0.0 27 154
- 0.468157 1 0 ack 40 ------- 0 1.0 0.0 27 154
r 0.468805 0 1 tcp 2271 ------- 0 0.0 1.0 28 28
+ 0.468805 1 0 ack 40 ------- 0 1.0 0.0 28 155
- 0.468805 1 0 ack 40 ------- 0 1.0 0.0 28 155
r 0.469454 0 1 tcp 2271 ------- 0 0.0 1.0 29 29
+ 0.469454 1 0 ack 40 ------- 0 1.0 0.0 29 156
- 0.469454 1 0 ack 40 ------- 0 1.0 0.0 29 156
r 0.470103 0 1 tcp 2271 ------- 0 0.0 1.0 30 30
+ 0.470103 1 0 ack 40 ------- 0 1.0 0.0 30 157
- 0.470103 1 0 ack 40 ------- 0 1.0 0.0 30 157
r 0.470752 0 1 tcp 2271 ------- 0 0.0 1.0 31 31
+ 0.470752 1 0 ack 40 ------- 0 1.0 0.0 31 158
- 0.470752 1 0 ack 40 ------- 0 1.0 0.0 31 158
r 0.471401 0 1 tcp 2271 ------- 0 0.0 1.0 32 32
+ 0.471401 1 0 ack 40 ------- 0 1.0 0.0 32 159
- 0.471401 1 0 ack 40 ------- 0 1.0 0.0 32 159
r 0.47205 0 1 tcp 2271 ------- 0 0.0 1.0 33 33
+ 0.47205 1 0 ack 40 ------- 0 1.0 0.0 33 160
- 0.47205 1 0 ack 40 ------- 0 1.0 0.0 33 160
r 0.472699 0 1 tcp 2271 ------- 0 0.0 1.0 34 34
+ 0.472699 1 0 ack 40 ------- 0 1.0 0.0 34 161
- 0.472699 1 0 ack 40 ------- 0 1.0 0.0 34 161
r 0.473347 0 1 tcp 2271 ------- 0 0.0 1.0 35 35
+ 0.473347 1 0 ack 40 ------- 0 1.0 0.0 35 162
- 0.473347 1 0 ack 40 ------- 0 1.0 0.0 35 162
r 0.473996 0 1 tcp 2271 ------- 0 0.0 1.0 36 36
+ 0.473996 1 0 ack 40 ------- 0 1.0 0.0 36 163
- 0.473996 1 0 ack 40 ------- 0 1.0 0.0 36 163
r 0.474645 0 1 tcp 2271 ------- 0 0.0 1.0 37 37
+ 0.474645 1 0 ack 40 ------- 0 1.0 0.0 37 164
- 0.474645 1 0 ack 40 ------- 0 1.0 0.0 37 164
r 0.475294 0 1 tcp 2271 ------- 0 0.0 1.0 38 38
+ 0.475294 1 0 ack 40 ------- 0 1.0 0.0 38 165
- 0.475294 1 0 ack 40 ------- 0 1.0 0.0 38 165
r 0.475943 0 1 tcp 2271 ------- 0 0.0 1.0 39 39
+ 0.475943 1 0 ack 40 ------- 0 1.0 0.0 39 166
- 0.475943 1 0 ack 40 ------- 0 1.0 0.0 39 166
r 0.476592 0 1 tcp 2271 ------- 0 0.0 1.0 40 40
+ 0.476592 1 0 ack 40 ------- 0 1.0 0.0 40 167
- 0.476592 1 0 ack 40 ------- 0 1.0 0.0 40 167
r 0.477241 0 1 tcp 2271 ------- 0 0.0 1.0 41 41
+ 0.477241 1 0 ack 40 ------- 0 1.0 0.0 41 168
- 0.477241 1 0 ack 40 ------- 0 1.0 0.0 41 168
r 0.477889 0 1 tcp 2271 ------- 0 0.0 1.0 42 42
+ 0.477889 1 0 ack 40 ------- 0 1.0 0.0 42 169
- 0.477889 1 0 ack 40 ------- 0 1.0 0.0 42 169
r 0.478538 0 1 tcp 2271 ------- 0 0.0 1.0 43 43
+ 0.478538 1 0 ack 40 ------- 0 1.0 0.0 43 170
- 0.478538 1 0 ack 40 ------- 0 1.0 0.0 43 170
r 0.479187 0 1 tcp 2271 ------- 0 0.0 1.0 44 44
+ 0.479187 1 0 ack 40 ------- 0 1.0 0.0 44 171
- 0.479187 1 0 ack 40 ------- 0 1.0 0.0 44 171
r 0.479836 0 1 tcp 2271 ------- 0 0.0 1.0 45 45
+ 0.479836 1 0 ack 40 ------- 0 1.0 0.0 45 172
- 0.479836 1 0 ack 40 ------- 0 1.0 0.0 45 172
r 0.480485 0 1 tcp 2271 ------- 0 0.0 1.0 46 46
+ 0.480485 1 0 ack 40 ------- 0 1.0 0.0 46 173
- 0.480485 1 0 ack 40 ------- 0 1.0 0.0 46 173
r 0.481134 0 1 tcp 2271 ------- 0 0.0 1.0 47 47
+ 0.481134 1 0 ack 40 ------- 0 1.0 0.0 47 174
- 0.481134 1 0 ack 40 ------- 0 1.0 0.0 47 174
r 0.481783 0 1 tcp 2271 ------- 0 0.0 1.0 48 48
+ 0.481783 1 0 ack 40 ------- 0 1.0 0.0 48 175
- 0.481783 1 0 ack 40 ------- 0 1.0 0.0 48 175
r 0.482431 0 1 tcp 2271 ------- 0 0.0 1.0 49 49
+ 0.482431 1 0 ack 40 ------- 0 1.0 0.0 49 176
- 0.482431 1 0 ack 40 ------- 0 1.0 0.0 49 176
r 0.48308 0 1 tcp 2271 ------- 0 0.0 1.0 50 50
+ 0.48308 1 0 ack 40 ------- 0 1.0 0.0 50 177
- 0.48308 1 0 ack 40 ------- 0 1.0 0.0 50 177
r 0.483729 0 1 tcp 2271 ------- 0 0.0 1.0 51 51
+ 0.483729 1 0 ack 40 ------- 0 1.0 0.0 51 178
- 0.483729 1 0 ack 40 ------- 0 1.0 0.0 51 178
r 0.484378 0 1 tcp 2271 ------- 0 0.0 1.0 52 52
+ 0.484378 1 0 ack 40 ------- 0 1.0 0.0 52 179
- 0.484378 1 0 ack 40 ------- 0 1.0 0.0 52 179
r 0.485027 0 1 tcp 2271 ------- 0 0.0 1.0 53 53
+ 0.485027 1 0 ack 40 ------- 0 1.0 0.0 53 180
- 0.485027 1 0 ack 40 ------- 0 1.0 0.0 53 180
r 0.485676 0 1 tcp 2271 ------- 0 0.0 1.0 54 54
+ 0.485676 1 0 ack 40 ------- 0 1.0 0.0 54 181
- 0.485676 1 0 ack 40 ------- 0 1.0 0.0 54 181
r 0.486325 0 1 tcp 2271 ------- 0 0.0 1.0 55 55
+ 0.486325 1 0 ack 40 ------- 0 1.0 0.0 55 182
- 0.486325 1 0 ack 40 ------- 0 1.0 0.0 55 182
r 0.486973 0 1 tcp 2271 ------- 0 0.0 1.0 56 56
+ 0.486973 1 0 ack 40 ------- 0 1.0 0.0 56 183
- 0.486973 1 0 ack 40 ------- 0 1.0 0.0 56 183
r 0.487622 0 1 tcp 2271 ------- 0 0.0 1.0 57 57
+ 0.487622 1 0 ack 40 ------- 0 1.0 0.0 57 184
- 0.487622 1 0 ack 40 ------- 0 1.0 0.0 57 184
r 0.488271 0 1 tcp 2271 ------- 0 0.0 1.0 58 58
+ 0.488271 1 0 ack 40 ------- 0 1.0 0.0 58 185
- 0.488271 1 0 ack 40 ------- 0 1.0 0.0 58 185
r 0.48892 0 1 tcp 2271 ------- 0 0.0 1.0 59 59
+ 0.48892 1 0 ack 40 ------- 0 1.0 0.0 59 186
- 0.48892 1 0 ack 40 ------- 0 1.0 0.0 59 186
r 0.489569 0 1 tcp 2271 ------- 0 0.0 1.0 60 60
+ 0.489569 1 0 ack 40 ------- 0 1.0 0.0 60 187
- 0.489569 1 0 ack 40 ------- 0 1.0 0.0 60 187
r 0.490218 0 1 tcp 2271 ------- 0 0.0 1.0 61 61
+ 0.490218 1 0 ack 40 ------- 0 1.0 0.0 61 188
- 0.490218 1 0 ack 40 ------- 0 1.0 0.0 61 188
r 0.490867 0 1 tcp 2271 ------- 0 0.0 1.0 62 62
+ 0.490867 1 0 ack 40 ------- 0 1.0 0.0 62 189
- 0.490867 1 0 ack 40 ------- 0 1.0 0.0 62 189
r 0.491515 0 1 tcp 2271 ------- 0 0.0 1.0 63 63
+ 0.491515 1 0 ack 40 ------- 0 1.0 0.0 63 190
- 0.491515 1 0 ack 40 ------- 0 1.0 0.0 63 190
r 0.492164 0 1 tcp 2271 ------- 0 0.0 1.0 64 64
+ 0.492164 1 0 ack 40 ------- 0 1.0 0.0 64 191
- 0.492164 1 0 ack 40 ------- 0 1.0 0.0 64 191
r 0.492813 0 1 tcp 2271 ------- 0 0.0 1.0 65 65
+ 0.492813 1 0 ack 40 ------- 0 1.0 0.0 65 192
- 0.492813 1 0 ack 40 ------- 0 1.0 0.0 65 192
r 0.493462 0 1 tcp 2271 ------- 0 0.0 1.0 66 66
+ 0.493462 1 0 ack 40 ------- 0 1.0 0.0 66 193
- 0.493462 1 0 ack 40 ------- 0 1.0 0.0 66 193
r 0.494111 0 1 tcp 2271 ------- 0 0.0 1.0 67 67
+ 0.494111 1 0 ack 40 ------- 0 1.0 0.0 67 194
- 0.494111 1 0 ack 40 ------- 0 1.0 0.0 67 194
r 0.49476 0 1 tcp 2271 ------- 0 0.0 1.0 68 68
+ 0.49476 1 0 ack 40 ------- 0 1.0 0.0 68 195
- 0.49476 1 0 ack 40 ------- 0 1.0 0.0 68 195
r 0.495409 0 1 tcp 2271 ------- 0 0.0 1.0 69 69
+ 0.495409 1 0 ack 40 ------- 0 1.0 0.0 69 196
- 0.495409 1 0 ack 40 ------- 0 1.0 0.0 69 196
r 0.496057 0 1 tcp 2271 ------- 0 0.0 1.0 70 70
+ 0.496057 1 0 ack 40 ------- 0 1.0 0.0 70 197
- 0.496057 1 0 ack 40 ------- 0 1.0 0.0 70 197
r 0.496706 0 1 tcp 2271 ------- 0 0.0 1.0 71 71
+ 0.496706 1 0 ack 40 ------- 0 1.0 0.0 71 198
- 0.496706 1 0 ack 40 ------- 0 1.0 0.0 71 198
r 0.497355 0 1 tcp 2271 ------- 0 0.0 1.0 72 72
+ 0.497355 1 0 ack 40 ------- 0 1.0 0.0 72 199
- 0.497355 1 0 ack 40 ------- 0 1.0 0.0 72 199
r 0.498004 0 1 tcp 2271 ------- 0 0.0 1.0 73 73
+ 0.498004 1 0 ack 40 ------- 0 1.0 0.0 73 200
- 0.498004 1 0 ack 40 ------- 0 1.0 0.0 73 200
r 0.498653 0 1 tcp 2271 ------- 0 0.0 1.0 74 74
+ 0.498653 1 0 ack 40 ------- 0 1.0 0.0 74 201
- 0.498653 1 0 ack 40 ------- 0 1.0 0.0 74 201
r 0.499302 0 1 tcp 2271 ------- 0 0.0 1.0 75 75
+ 0.499302 1 0 ack 40 ------- 0 1.0 0.0 75 202
- 0.499302 1 0 ack 40 ------- 0 1.0 0.0 75 202
r 0.499951 0 1 tcp 2271 ------- 0 0.0 1.0 76 76
+ 0.499951 1 0 ack 40 ------- 0 1.0 0.0 76 203
- 0.499951 1 0 ack 40 ------- 0 1.0 0.0 76 203
r 0.500599 0 1 tcp 2271 ------- 0 0.0 1.0 77 77
+ 0.500599 1 0 ack 40 ------- 0 1.0 0.0 77 204
- 0.500599 1 0 ack 40 ------- 0 1.0 0.0 77 204
r 0.501248 0 1 tcp 2271 ------- 0 0.0 1.0 78 78
+ 0.501248 1 0 ack 40 ------- 0 1.0 0.0 78 205
- 0.501248 1 0 ack 40 ------- 0 1.0 0.0 78 205
r 0.501897 0 1 tcp 2271 ------- 0 0.0 1.0 79 79
+ 0.501897 1 0 ack 40 ------- 0 1.0 0.0 79 206
- 0.501897 1 0 ack 40 ------- 0 1.0 0.0 79 206
r 0.502546 0 1 tcp 2271 ------- 0 0.0 1.0 80 80
+ 0.502546 1 0 ack 40 ------- 0 1.0 0.0 80 207
- 0.502546 1 0 ack 40 ------- 0 1.0 0.0 80 207
r 0.503195 0 1 tcp 2271 ------- 0 0.0 1.0 81 81
+ 0.503195 1 0 ack 40 ------- 0 1.0 0.0 81 208
- 0.503195 1 0 ack 40 ------- 0 1.0 0.0 81 208
r 0.503844 0 1 tcp 2271 ------- 0 0.0 1.0 82 82
+ 0.503844 1 0 ack 40 ------- 0 1.0 0.0 82 209
- 0.503844 1 0 ack 40 ------- 0 1.0 0.0 82 209
r 0.504493 0 1 tcp 2271 ------- 0 0.0 1.0 83 83
+ 0.504493 1 0 ack 40 ------- 0 1.0 0.0 83 210
- 0.504493 1 0 ack 40 ------- 0 1.0 0.0 83 210
r 0.505141 0 1 tcp 2271 ------- 0 0.0 1.0 84 84
+ 0.505141 1 0 ack 40 ------- 0 1.0 0.0 84 211
- 0.505141 1 0 ack 40 ------- 0 1.0 0.0 84 211
r 0.50579 0 1 tcp 2271 ------- 0 0.0 1.0 85 85
+ 0.50579 1 0 ack 40 ------- 0 1.0 0.0 85 212
- 0.50579 1 0 ack 40 ------- 0 1.0 0.0 85 212
r 0.506439 0 1 tcp 2271 ------- 0 0.0 1.0 86 86
+ 0.506439 1 0 ack 40 ------- 0 1.0 0.0 86 213
- 0.506439 1 0 ack 40 ------- 0 1.0 0.0 86 213
r 0.507088 0 1 tcp 2271 ------- 0 0.0 1.0 87 87
+ 0.507088 1 0 ack 40 ------- 0 1.0 0.0 87 214
- 0.507088 1 0 ack 40 ------- 0 1.0 0.0 87 214
r 0.507737 0 1 tcp 2271 ------- 0 0.0 1.0 88 88
+ 0.507737 1 0 ack 40 ------- 0 1.0 0.0 88 215
- 0.507737 1 0 ack 40 ------- 0 1.0 0.0 88 215
r 0.508386 0 1 tcp 2271 ------- 0 0.0 1.0 89 89
+ 0.508386 1 0 ack 40 ------- 0 1.0 0.0 89 216
- 0.508386 1 0 ack 40 ------- 0 1.0 0.0 89 216
r 0.509035 0 1 tcp 2271 ------- 0 0.0 1.0 90 90
+ 0.509035 1 0 ack 40 ------- 0 1.0 0.0 90 217
- 0.509035 1 0 ack 40 ------- 0 1.0 0.0 90 217
r 0.509683 0 1 tcp 2271 ------- 0 0.0 1.0 91 91
+ 0.509683 1 0 ack 40 ------- 0 1.0 0.0 91 218
- 0.509683 1 0 ack 40 ------- 0 1.0 0.0 91 218
r 0.510332 0 1 tcp 2271 ------- 0 0.0 1.0 92 92
+ 0.510332 1 0 ack 40 ------- 0 1.0 0.0 92 219
- 0.510332 1 0 ack 40 ------- 0 1.0 0.0 92 219
r 0.510981 0 1 tcp 2271 ------- 0 0.0 1.0 93 93
+ 0.510981 1 0 ack 40 ------- 0 1.0 0.0 93 220
- 0.510981 1 0 ack 40 ------- 0 1.0 0.0 93 220
r 0.51163 0 1 tcp 2271 ------- 0 0.0 1.0 94 94
+ 0.51163 1 0 ack 40 ------- 0 1.0 0.0 94 221
- 0.51163 1 0 ack 40 ------- 0 1.0 0.0 94 221
r 0.512279 0 1 tcp 2271 ------- 0 0.0 1.0 95 95
+ 0.512279 1 0 ack 40 ------- 0 1.0 0.0 95 222
- 0.512279 1 0 ack 40 ------- 0 1.0 0.0 95 222
r 0.512928 0 1 tcp 2271 ------- 0 0.0 1.0 96 96
+ 0.512928 1 0 ack 40 ------- 0 1.0 0.0 96 223
- 0.512928 1 0 ack 40 ------- 0 1.0 0.0 96 223
r 0.513577 0 1 tcp 2271 ------- 0 0.0 1.0 97 97
+ 0.513577 1 0 ack 40 ------- 0 1.0 0.0 97 224
- 0.513577 1 0 ack 40 ------- 0 1.0 0.0 97 224
r 0.514225 0 1 tcp 2271 ------- 0 0.0 1.0 98 98
+ 0.514225 1 0 ack 40 ------- 0 1.0 0.0 98 225
- 0.514225 1 0 ack 40 ------- 0 1.0 0.0 98 225
r 0.514874 0 1 tcp 2271 ------- 0 0.0 1.0 99 99
+ 0.514874 1 0 ack 40 ------- 0 1.0 0.0 99 226
- 0.514874 1 0 ack 40 ------- 0 1.0 0.0 99 226
r 0.515523 0 1 tcp 2271 ------- 0 0.0 1.0 100 100
+ 0.515523 1 0 ack 40 ------- 0 1.0 0.0 100 227
- 0.515523 1 0 ack 40 ------- 0 1.0 0.0 100 227
r 0.516172 0 1 tcp 2271 ------- 0 0.0 1.0 101 101
+ 0.516172 1 0 ack 40 ------- 0 1.0 0.0 101 228
- 0.516172 1 0 ack 40 ------- 0 1.0 0.0 101 228
r 0.516821 0 1 tcp 2271 ------- 0 0.0 1.0 102 102
+ 0.516821 1 0 ack 40 ------- 0 1.0 0.0 102 229
- 0.516821 1 0 ack 40 ------- 0 1.0 0.0 102 229
r 0.51747 0 1 tcp 2271 ------- 0 0.0 1.0 103 103
+ 0.51747 1 0 ack 40 ------- 0 1.0 0.0 103 230
- 0.51747 1 0 ack 40 ------- 0 1.0 0.0 103 230
r 0.518119 0 1 tcp 2271 ------- 0 0.0 1.0 104 104
+ 0.518119 1 0 ack 40 ------- 0 1.0 0.0 104 231
- 0.518119 1 0 ack 40 ------- 0 1.0 0.0 104 231
r 0.518767 0 1 tcp 2271 ------- 0 0.0 1.0 105 105
+ 0.518767 1 0 ack 40 ------- 0 1.0 0.0 105 232
- 0.518767 1 0 ack 40 ------- 0 1.0 0.0 105 232
r 0.519416 0 1 tcp 2271 ------- 0 0.0 1.0 106 106
+ 0.519416 1 0 ack 40 ------- 0 1.0 0.0 106 233
- 0.519416 1 0 ack 40 ------- 0 1.0 0.0 106 233
r 0.520065 0 1 tcp 2271 ------- 0 0.0 1.0 107 107
+ 0.520065 1 0 ack 40 ------- 0 1.0 0.0 107 234
- 0.520065 1 0 ack 40 ------- 0 1.0 0.0 107 234
r 0.520714 0 1 tcp 2271 ------- 0 0.0 1.0 108 108
+ 0.520714 1 0 ack 40 ------- 0 1.0 0.0 108 235
- 0.520714 1 0 ack 40 ------- 0 1.0 0.0 108 235
r 0.521363 0 1 tcp 2271 ------- 0 0.0 1.0 109 109
+ 0.521363 1 0 ack 40 ------- 0 1.0 0.0 109 236
- 0.521363 1 0 ack 40 ------- 0 1.0 0.0 109 236
r 0.522012 0 1 tcp 2271 ------- 0 0.0 1.0 110 110
+ 0.522012 1 0 ack 40 ------- 0 1.0 0.0 110 237
- 0.522012 1 0 ack 40 ------- 0 1.0 0.0 110 237
r 0.522661 0 1 tcp 2271 ------- 0 0.0 1.0 111 111
+ 0.522661 1 0 ack 40 ------- 0 1.0 0.0 111 238
- 0.522661 1 0 ack 40 ------- 0 1.0 0.0 111 238
r 0.523309 0 1 tcp 2271 ------- 0 0.0 1.0 112 112
+ 0.523309 1 0 ack 40 ------- 0 1.0 0.0 112 239
- 0.523309 1 0 ack 40 ------- 0 1.0 0.0 112 239
r 0.523958 0 1 tcp 2271 ------- 0 0.0 1.0 113 113
+ 0.523958 1 0 ack 40 ------- 0 1.0 0.0 113 240
- 0.523958 1 0 ack 40 ------- 0 1.0 0.0 113 240
r 0.524607 0 1 tcp 2271 ------- 0 0.0 1.0 114 114
+ 0.524607 1 0 ack 40 ------- 0 1.0 0.0 114 241
- 0.524607 1 0 ack 40 ------- 0 1.0 0.0 114 241
r 0.525256 0 1 tcp 2271 ------- 0 0.0 1.0 115 115
+ 0.525256 1 0 ack 40 ------- 0 1.0 0.0 115 242
- 0.525256 1 0 ack 40 ------- 0 1.0 0.0 115 242
r 0.525905 0 1 tcp 2271 ------- 0 0.0 1.0 116 116
+ 0.525905 1 0 ack 40 ------- 0 1.0 0.0 116 243
- 0.525905 1 0 ack 40 ------- 0 1.0 0.0 116 243
r 0.526554 0 1 tcp 2271 ------- 0 0.0 1.0 117 117
+ 0.526554 1 0 ack 40 ------- 0 1.0 0.0 117 244
- 0.526554 1 0 ack 40 ------- 0 1.0 0.0 117 244
r 0.527203 0 1 tcp 2271 ------- 0 0.0 1.0 118 118
+ 0.527203 1 0 ack 40 ------- 0 1.0 0.0 118 245
- 0.527203 1 0 ack 40 ------- 0 1.0 0.0 118 245
r 0.527851 0 1 tcp 2271 ------- 0 0.0 1.0 119 119
+ 0.527851 1 0 ack 40 ------- 0 1.0 0.0 119 246
- 0.527851 1 0 ack 40 ------- 0 1.0 0.0 119 246
r 0.5285 0 1 tcp 2271 ------- 0 0.0 1.0 120 120
+ 0.5285 1 0 ack 40 ------- 0 1.0 0.0 120 247
- 0.5285 1 0 ack 40 ------- 0 1.0 0.0 120 247
r 0.529149 0 1 tcp 2271 ------- 0 0.0 1.0 121 121
+ 0.529149 1 0 ack 40 ------- 0 1.0 0.0 121 248
- 0.529149 1 0 ack 40 ------- 0 1.0 0.0 121 248
r 0.529798 0 1 tcp 2271 ------- 0 0.0 1.0 122 122
+ 0.529798 1 0 ack 40 ------- 0 1.0 0.0 122 249
- 0.529798 1 0 ack 40 ------- 0 1.0 0.0 122 249
r 0.530447 0 1 tcp 2271 ------- 0 0.0 1.0 123 123
+ 0.530447 1 0 ack 40 ------- 0 1.0 0.0 123 250
- 0.530447 1 0 ack 40 ------- 0 1.0 0.0 123 250
r 0.531096 0 1 tcp 2271 ------- 0 0.0 1.0 124 124
+ 0.531096 1 0 ack 40 ------- 0 1.0 0.0 124 251
- 0.531096 1 0 ack 40 ------- 0 1.0 0.0 124 251
r 0.531745 0 1 tcp 2271 ------- 0 0.0 1.0 125 125
+ 0.531745 1 0 ack 40 ------- 0 1.0 0.0 125 252
- 0.531745 1 0 ack 40 ------- 0 1.0 0.0 125 252
r 0.532393 0 1 tcp 2271 ------- 0 0.0 1.0 126 126
+ 0.532393 1 0 ack 40 ------- 0 1.0 0.0 126 253
- 0.532393 1 0 ack 40 ------- 0 1.0 0.0 126 253
r 0.650649 1 0 ack 40 ------- 0 1.0 0.0 0 127
+ 0.650649 0 1 tcp 2271 ------- 0 0.0 1.0 127 254
- 0.650649 0 1 tcp 2271 ------- 0 0.0 1.0 127 254
r 0.651298 1 0 ack 40 ------- 0 1.0 0.0 1 128