V -t * -v 1.0a5 -a 0
A -t * -n 1 -p 0 -o 0x7fffffff -c 30 -a 1
A -t * -h 1 -m 1073741823 -s 0
n -t * -a 0 -s 0 -S UP -v circle -c black -i black
n -t * -a 1 -s 1 -S UP -v circle -c black -i black
l -t * -s 0 -d 1 -S UP -r 28000000 -D 0.20000000000000001 -c black -o right
n -t 0 -s 0 -S DLABEL -l "SRP_sender" -L ""
n -t 0 -s 1 -S DLABEL -l "SRP_receiver" -L ""
+ -t 0.25 -s 0 -d 1 -p tcp -e 2231 -c 0 -i 0 -a 0 -x {0.0 1.0 0 ------- null}
- -t 0.25 -s 0 -d 1 -p tcp -e 2231 -c 0 -i 0 -a 0 -x {0.0 1.0 0 ------- null}
h -t 0.25 -s 0 -d 1 -p tcp -e 2231 -c 0 -i 0 -a 0 -x {0.0 1.0 -1 ------- null}
+ -t 0.25 -s 0 -d 1 -p tcp -e 2271 -c 0 -i 1 -a 0 -x {0.0 1.0 1 ------- null}
+ -t 0.25 -s 0 -d 1 -p tcp -e 2271 -c 0 -i 2 -a 0 -x {0.0 1.0 2 ------- null}
+ -t 0.25 -s 0 -d 1 -p tcp -e 2271 -c 0 -i 3 -a 0 -x {0.0 1.0 3 ------- null}
+ -t 0.25 -s 0 -d 1 -p tcp -e 2271 -c 0 -i 4 -a 0 -x {0.0 1.0 4 ------- null}
+ -t 0.25 -s 0 -d 1 -p tcp -e 2271 -c 0 -i 5 -a 0 -x {0.0 1.0 5 ------- null}
+ -t 0.25 -s 0 -d 1 -p tcp -e 2271 -c 0 -i 6 -a 0 -x {0.0 1.0 6 ------- null}
+ -t 0.25 -s 0 -d 1 -p tcp -e 2271 -c 0 -i 7 -a 0 -x {0.0 1.0 7 ------- null}
+ -t 0.25 -s 0 -d 1 -p tcp -e 2271 -c 0 -i 8 -a 0 -x {0.0 1.0 8 ------- null}
+ -t 0.25 -s 0 -d 1 -p tcp -e 2271 -c 0 -i 9 -a 0 -x {0.0 1.0 9 ------- null}
+ -t 0.25 -s 0 -d 1 -p tcp -e 2271 -c 0 -i 10 -a 0 -x {0.0 1.0 10 ------- null}
+ -t 0.25 -s 0 -d 1 -p tcp -e 2271 -c 0 -i 11 -a 0 -x {0.0 1.0 11 ------- null}
+ -t 0.25 -s 0 -d 1 -p tcp -e 2271 -c 0 -i 12 -a 0 -x {0.0 1.0 12 ------- null}
+ -t 0.25 -s 0 -d 1 -p tcp -e 2271 -c 0 -i 13 -a 0 -x {0.0 1.0 13 ------- null}
+ -t 0.25 -s 0 -d 1 -p tcp -e 2271 -c 0 -i 14 -a 0 -x {0.0 1.0 14 ------- null}
+ -t 0.25 -s 0 -d 1 -p tcp -e 2271 -c 0 -i 15 -a 0 -x {0.0 1.0 15 ------- null}
+ -t 0.25 -s 0 -d 1 -p tcp -e 2271 -c 0 -i 16 -a 0 -x {0.0 1.0 16 ------- null}
+ -t 0.25 -s 0 -d 1 -p tcp -e 2271 -c 0 -i 17 -a 0 -x {0.0 1.0 17 ------- null}
+ -t 0.25 -s 0 -d 1 -p tcp -e 2271 -c 0 -i 18 -a 0 -x {0.0 1.0 18 ------- null}
+ -t 0.25 -s 0 -d 1 -p tcp -e 2271 -c 0 -i 19 -a 0 -x {0.0 1.0 19 ------- null}
+ -t 0.25 -s 0 -d 1 -p tcp -e 2271 -c 0 -i 20 -a 0 -x {0.0 1.0 20 ------- null}
+ -t 0.25 -s 0 -d 1 -p tcp -e 2271 -c 0 -i 21 -a 0 -x {0.0 1.0 21 ------- null}
+ -t 0.25 -s 0 -d 1 -p tcp -e 2271 -c 0 -i 22 -a 0 -x {0.0 1.0 22 ------- null}
+ -t 0.25 -s 0 -d 1 -p tcp -e 2271 -c 0 -i 23 -a 0 -x {0.0 1.0 23 ------- null}
+ -t 0.25 -s 0 -d 1 -p tcp -e 2271 -c 0 -i 24 -a 0 -x {0.0 1.0 24 ------- null}
+ -t 0.25 -s 0 -d 1 -p tcp -e 2271 -c 0 -i 25 -a 0 -x {0.0 1.0 25 ------- null}
+ -t 0.25 -s 0 -d 1 -p tcp -e 2271 -c 0 -i 26 -a 0 -x {0.0 1.0 26 ------- null}
+ -t 0.25 -s 0 -d 1 -p tcp -e 2271 -c 0 -i 27 -a 0 -x {0.0 1.0 27 ------- null}
+ -t 0.25 -s 0 -d 1 -p tcp -e 2271 -c 0 -i 28 -a 0 -x {0.0 1.0 28 ------- null}
+ -t 0.25 -s 0 -d 1 -p tcp -e 2271 -c 0 -i 29 -a 0 -x {0.0 1.0 29 ------- null}
+ -t 0.25 -s 0 -d 1 -p tcp -e 2271 -c 0 -i 30 -a 0 -x {0.0 1.0 30 ------- null}
+ -t 0.25 -s 0 -d 1 -p tcp -e 2271 -c 0 -i 31 -a 0 -x {0.0 1.0 31 ------- null}
+ -t 0.25 -s 0 -d 1 -p tcp -e 2271 -c 0 -i 32 -a 0 -x {0.0 1.0 32 ------- null}
+ -t 0.25 -s 0 -d 1 -p tcp -e 2271 -c 0 -i 33 -a 0 -x {0.0 1.0 33 ------- null}
+ -t 0.25 -s 0 -d 1 -p tcp -e 2271 -c 0 -i 34 -a 0 -x {0.0 1.0 34 ------- null}
+ -t 0.25 -s 0 -d 1 -p tcp -e 2271 -c 0 -i 35 -a 0 -x {0.0 1.0 35 ------- null}
+ -t 0.25 -s 0 -d 1 -p tcp -e 2271 -c 0 -i 36 -a 0 -x {0.0 1.0 36 ------- null}
+ -t 0.25 -s 0 -d 1 -p tcp -e 2271 -c 0 -i 37 -a 0 -x {0.0 1.0 37 ------- null}
+ -t 0.25 -s 0 -d 1 -p tcp -e 2271 -c 0 -i 38 -a 0 -x {0.0 1.0 38 ------- null}
+ -t 0.25 -s 0 -d 1 -p tcp -e 2271 -c 0 -i 39 -a 0 -x {0.0 1.0 39 ------- null}
+ -t 0.25 -s 0 -d 1 -p tcp -e 2271 -c 0 -i 40 -a 0 -x {0.0 1.0 40 ------- null}
+ -t 0.25 -s 0 -d 1 -p tcp -e 2271 -c 0 -i 41 -a 0 -x {0.0 1.0 41 ------- null}
+ -t 0.25 -s 0 -d 1 -p tcp -e 2271 -c 0 -i 42 -a 0 -x {0.0 1.0 42 ------- null}
+ -t 0.25 -s 0 -d 1 -p tcp -e 2271 -c 0 -i 43 -a 0 -x {0.0 1.0 43 ------- null}
+ -t 0.25 -s 0 -d 1 -p tcp -e 2271 -c 0 -i 44 -a 0 -x {0.0 1.0 44 ------- null}
+ -t 0.25 -s 0 -d 1 -p tcp -e 2271 -c 0 -i 45 -a 0 -x {0.0 1.0 45 ------- null}
+ -t 0.25 -s 0 -d 1 -p tcp -e 2271 -c 0 -i 46 -a 0 -x {0.0 1.0 46 ------- null}
+ -t 0.25 -s 0 -d 1 -p tcp -e 2271 -c 0 -i 47 -a 0 -x {0.0 1.0 47 ------- null}
+ -t 0.25 -s 0 -d 1 -p tcp -e 2271 -c 0 -i 48 -a 0 -x {0.0 1.0 48 ------- null}
+ -t 0.25 -s 0 -d 1 -p tcp -e 2271 -c 0 -i 49 -a 0 -x {0.0 1.0 49 ------- null}
+ -t 0.25 -s 0 -d 1 -p tcp -e 2271 -c 0 -i 50 -a 0 -x {0.0 1.0 50 ------- null}
+ -t 0.25 -s 0 -d 1 -p tcp -e 2271 -c 0 -i 51 -a 0 -x {0.0 1.0 51 ------- null}
+ -t 0.25 -s 0 -d 1 -p tcp -e 2271 -c 0 -i 52 -a 0 -x {0.0 1.0 52 ------- null}
+ -t 0.25 -s 0 -d 1 -p tcp -e 2271 -c 0 -i 53 -a 0 -x {0.0 1.0 53 ------- null}
+ -t 0.25 -s 0 -d 1 -p tcp -e 2271 -c 0 -i 54 -a 0 -x {0.0 1.0 54 ------- null}
+ -t 0.25 -s 0 -d 1 -p tcp -e 2271 -c 0 -i 55 -a 0 -x {0.0 1.0 55 ------- null}
+ -t 0.25 -s 0 -d 1 -p tcp -e 2271 -c 0 -i 56 -a 0 -x {0.0 1.0 56 ------- null}
+ -t 0.25 -s 0 -d 1 -p tcp -e 2271 -c 0 -i 57 -a 0 -x {0.0 1.0 57 ------- null}
+ -t 0.25 -s 0 -d 1 -p tcp -e 2271 -c 0 -i 58 -a 0 -x {0.0 1.0 58 ------- null}
+ -t 0.25 -s 0 -d 1 -p tcp -e 2271 -c 0 -i 59 -a 0 -x {0.0 1.0 59 ------- null}
+ -t 0.25 -s 0 -d 1 -p tcp -e 2271 -c 0 -i 60 -a 0 -x {0.0 1.0 60 ------- null}
+ -t 0.25 -s 0 -d 1 -p tcp -e 2271 -c 0 -i 61 -a 0 -x {0.0 1.0 61 ------- null}
+ -t 0.25 -s 0 -d 1 -p tcp -e 2271 -c 0 -i 62 -a 0 -x {0.0 1.0 62 ------- null}
+ -t 0.25 -s 0 -d 1 -p tcp -e 2271 -c 0 -i 63 -a 0 -x {0.0 1.0 63 ------- null}
+ -t 0.25 -s 0 -d 1 -p tcp -e 2271 -c 0 -i 64 -a 0 -x {0.0 1.0 64 ------- null}
+ -t 0.25 -s 0 -d 1 -p tcp -e 2271 -c 0 -i 65 -a 0 -x {0.0 1.0 65 ------- null}
+ -t 0.25 -s 0 -d 1 -p tcp -e 2271 -c 0 -i 66 -a 0 -x {0.0 1.0 66 ------- null}
+ -t 0.25 -s 0 -d 1 -p tcp -e 2271 -c 0 -i 67 -a 0 -x {0.0 1.0 67 ------- null}
+ -t 0.25 -s 0 -d 1 -p tcp -e 2271 -c 0 -i 68 -a 0 -x {0.0 1.0 68 ------- null}
+ -t 0.25 -s 0 -d 1 -p tcp -e 2271 -c 0 -i 69 -a 0 -x {0.0 1.0 69 ------- null}
+ -t 0.25 -s 0 -d 1 -p tcp -e 2271 -c 0 -i 70 -a 0 -x {0.0 1.0 70 ------- null}
+ -t 0.25 -s 0 -d 1 -p tcp -e 2271 -c 0 -i 71 -a 0 -x {0.0 1.0 71 ------- null}
+ -t 0.25 -s 0 -d 1 -p tcp -e 2271 -c 0 -i 72 -a 0 -x {0.0 1.0 72 ------- null}
+ -t 0.25 -s 0 -d 1 -p tcp -e 2271 -c 0 -i 73 -a 0 -x {0.0 1.0 73 ------- null}
+ -t 0.25 -s 0 -d 1 -p tcp -e 2271 -c 0 -i 74 -a 0 -x {0.0 1.0 74 ------- null}
+ -t 0.25 -s 0 -d 1 -p tcp -e 2271 -c 0 -i 75 -a 0 -x {0.0 1.0 75 ------- null}
+ -t 0.25 -s 0 -d 1 -p tcp -e 2271 -c 0 -i 76 -a 0 -x {0.0 1.0 76 ------- null}
+ -t 0.25 -s 0 -d 1 -p tcp -e 2271 -c 0 -i 77 -a 0 -x {0.0 1.0 77 ------- null}
+ -t 0.25 -s 0 -d 1 -p tcp -e 2271 -c 0 -i 78 -a 0 -x {0.0 1.0 78 ------- null}
+ -t 0.25 -s 0 -d 1 -p tcp -e 2271 -c 0 -i 79 -a 0 -x {0.0 1.0 79 ------- null}
+ -t 0.25 -s 0 -d 1 -p tcp -e 2271 -c 0 -i 80 -a 0 -x {0.0 1.0 80 ------- null}
+ -t 0.25 -s 0 -d 1 -p tcp -e 2271 -c 0 -i 81 -a 0 -x {0.0 1.0 81 ------- null}
+ -t 0.25 -s 0 -d 1 -p tcp -e 2271 -c 0 -i 82 -a 0 -x {0.0 1.0 82 ------- null}
+ -t 0.25 -s 0 -d 1 -p tcp -e 2271 -c 0 -i 83 -a 0 -x {0.0 1.0 83 ------- null}
+ -t 0.25 -s 0 -d 1 -p tcp -e 2271 -c 0 -i 84 -a 0 -x {0.0 1.0 84 ------- null}
+ -t 0.25 -s 0 -d 1 -p tcp -e 2271 -c 0 -i 85 -a 0 -x {0.0 1.0 85 ------- null}
+ -t 0.25 -s 0 -d 1 -p tcp -e 2271 -c 0 -i 86 -a 0 -x {0.0 1.0 86 ------- null}
+ -t 0.25 -s 0 -d 1 -p tcp -e 2271 -c 0 -i 87 -a 0 -x {0.0 1.0 87 ------- null}
+ -t 0.25 -s 0 -d 1 -p tcp -e 2271 -c 0 -i 88 -a 0 -x {0.0 1.0 88 ------- null}
+ -t 0.25 -s 0 -d 1 -p tcp -e 2271 -c 0 -i 89 -a 0 -x {0.0 1.0 89 ------- null}
+ -t 0.25 -s 0 -d 1 -p tcp -e 2271 -c 0 -i 90 -a 0 -x {0.0 1.0 90 ------- null}
+ -t 0.25 -s 0 -d 1 -p tcp -e 2271 -c 0 -i 91 -a 0 -x {0.0 1.0 91 ------- null}
+ -t 0.25 -s 0 -d 1 -p tcp -e 2271 -c 0 -i 92 -a 0 -x {0.0 1.0 92 ------- null}
+ -t 0.25 -s 0 -d 1 -p tcp -e 2271 -c 0 -i 93 -a 0 -x {0.0 1.0 93 ------- null}
+ -t 0.25 -s 0 -d 1 -p tcp -e 2271 -c 0 -i 94 -a 0 -x {0.0 1.0 94 ------- null}
+ -t 0.25 -s 0 -d 1 -p tcp -e 2271 -c 0 -i 95 -a 0 -x {0.0 1.0 95 ------- null}
+ -t 0.25 -s 0 -d 1 -p tcp -e 2271 -c 0 -i 96 -a 0 -x {0.0 1.0 96 ------- null}
+ -t 0.25 -s 0 -d 1 -p tcp -e 2271 -c 0 -i 97 -a 0 -x {0.0 1.0 97 ------- null}
+ -t 0.25 -s 0 -d 1 -p tcp -e 2271 -c 0 -i 98 -a 0 -x {0.0 1.0 98 ------- null}
+ -t 0.25 -s 0 -d 1 -p tcp -e 2271 -c 0 -i 99 -a 0 -x {0.0 1.0 99 ------- null}
+ -t 0.25 -s 0 -d 1 -p tcp -e 2271 -c 0 -i 100 -a 0 -x {0.0 1.0 100 ------- null}
+ -t 0.25 -s 0 -d 1 -p tcp -e 2271 -c 0 -i 101 -a 0 -x {0.0 1.0 101 ------- null}
+ -t 0.25 -s 0 -d 1 -p tcp -e 2271 -c 0 -i 102 -a 0 -x {0.0 1.0 102 ------- null}
+ -t 0.25 -s 0 -d 1 -p tcp -e 2271 -c 0 -i 103 -a 0 -x {0.0 1.0 103 ------- null}
+ -t 0.25 -s 0 -d 1 -p tcp -e 2271 -c 0 -i 104 -a 0 -x {0.0 1.0 104 ------- null}
+ -t 0.25 -s 0 -d 1 -p tcp -e 2271 -c 0 -i 105 -a 0 -x {0.0 1.0 105 ------- null}
+ -t 0.25 -s 0 -d 1 -p tcp -e 2271 -c 0 -i 106 -a 0 -x {0.0 1.0 106 ------- null}
+ -t 0.25 -s 0 -d 1 -p tcp -e 2271 -c 0 -i 107 -a 0 -x {0.0 1.0 107 ------- null}
+ -t 0.25 -s 0 -d 1 -p tcp -e 2271 -c 0 -i 108 -a 0 -x {0.0 1.0 108 ------- null}
+ -t 0.25 -s 0 -d 1 -p tcp -e 2271 -c 0 -i 109 -a 0 -x {0.0 1.0 109 ------- null}
+ -t 0.25 -s 0 -d 1 -p tcp -e 2271 -c 0 -i 110 -a 0 -x {0.0 1.0 110 ------- null}
+ -t 0.25 -s 0 -d 1 -p tcp -e 2271 -c 0 -i 111 -a 0 -x {0.0 1.0 111 ------- null}
+ -t 0.25 -s 0 -d 1 -p tcp -e 2271 -c 0 -i 112 -a 0 -x {0.0 1.0 112 ------- null}
+ -t 0.25 -s 0 -d 1 -p tcp -e 2271 -c 0 -i 113 -a 0 -x {0.0 1.0 113 ------- null}
+ -t 0.25 -s 0 -d 1 -p tcp -e 2271 -c 0 -i 114 -a 0 -x {0.0 1.0 114 ------- null}
+ -t 0.25 -s 0 -d 1 -p tcp -e 2271 -c 0 -i 115 -a 0 -x {0.0 1.0 115 ------- null}
+ -t 0.25 -s 0 -d 1 -p tcp -e 2271 -c 0 -i 116 -a 0 -x {0.0 1.0 116 ------- null}
+ -t 0.25 -s 0 -d 1 -p tcp -e 2271 -c 0 -i 117 -a 0 -x {0.0 1.0 117 ------- null}
+ -t 0.25 -s 0 -d 1 -p tcp -e 2271 -c 0 -i 118 -a 0 -x {0.0 1.0 118 ------- null}
+ -t 0.25 -s 0 -d 1 -p tcp -e 2271 -c 0 -i 119 -a 0 -x {0.0 1.0 119 ------- null}
+ -t 0.25 -s 0 -d 1 -p tcp -e 2271 -c 0 -i 120 -a 0 -x {0.0 1.0 120 ------- null}
+ -t 0.25 -s 0 -d 1 -p tcp -e 2271 -c 0 -i 121 -a 0 -x {0.0 1.0 121 ------- null}
+ -t 0.25 -s 0 -d 1 -p tcp -e 2271 -c 0 -i 122 -a 0 -x {0.0 1.0 122 ------- null}
+ -t 0.25 -s 0 -d 1 -p tcp -e 2271 -c 0 -i 123 -a 0 -x {0.0 1.0 123 ------- null}
+ -t 0.25 -s 0 -d 1 -p tcp -e 2271 -c 0 -i 124 -a 0 -x {0.0 1.0 124 ------- null}
+ -t 0.25 -s 0 -d 1 -p tcp -e 2271 -c 0 -i 125 -a 0 -x {0.0 1.0 125 ------- null}
+ -t 0.25 -s 0 -d 1 -p tcp -e 2271 -c 0 -i 126 -a 0 -x {0.0 1.0 126 ------- null}
- -t 0.250637428571429 -s 0 -d 1 -p tcp -e 2271 -c 0 -i 1 -a 0 -x {0.0 1.0 1 ------- null}
h -t 0.250637428571429 -s 0 -d 1 -p tcp -e 2271 -c 0 -i 1 -a 0 -x {0.0 1.0 -1 ------- null}
- -t 0.251286285714286 -s 0 -d 1 -p tcp -e 2271 -c 0 -i 2 -a 0 -x {0.0 1.0 2 ------- null}
h -t 0.251286285714286 -s 0 -d 1 -p tcp -e 2271 -c 0 -i 2 -a 0 -x {0.0 1.0 -1 ------- null}
- -t 0.251935142857143 -s 0 -d 1 -p tcp -e 2271 -c 0 -i 3 -a 0 -x {0.0 1.0 3 ------- null}
h -t 0.251935142857143 -s 0 -d 1 -p tcp -e 2271 -c 0 -i 3 -a 0 -x {0.0 1.0 -1 ------- null}
- -t 0.252584 -s 0 -d 1 -p tcp -e 2271 -c 0 -i 4 -a 0 -x {0.0 1.0 4 ------- null}
h -t 0.252584 -s 0 -d 1 -p tcp -e 2271 -c 0 -i 4 -a 0 -x {0.0 1.0 -1 ------- null}
- -t 0.253232857142857 -s 0 -d 1 -p tcp -e 2271 -c 0 -i 5 -a 0 -x {0.0 1.0 5 ------- null}
h -t 0.253232857142857 -s 0 -d 1 -p tcp -e 2271 -c 0 -i 5 -a 0 -x {0.0 1.0 -1 ------- null}
- -t 0.253881714285714 -s 0 -d 1 -p tcp -e 2271 -c 0 -i 6 -a 0 -x {0.0 1.0 6 ------- null}
h -t 0.253881714285714 -s 0 -d 1 -p tcp -e 2271 -c 0 -i 6 -a 0 -x {0.0 1.0 -1 ------- null}
- -t 0.254530571428571 -s 0 -d 1 -p tcp -e 2271 -c 0 -i 7 -a 0 -x {0.0 1.0 7 ------- null}
h -t 0.254530571428571 -s 0 -d 1 -p tcp -e 2271 -c 0 -i 7 -a 0 -x {0.0 1.0 -1 ------- null}
- -t 0.255179428571428 -s 0 -d 1 -p tcp -e 2271 -c 0 -i 8 -a 0 -x {0.0 1.0 8 ------- null}
h -t 0.255179428571428 -s 0 -d 1 -p tcp -e 2271 -c 0 -i 8 -a 0 -x {0.0 1.0 -1 ------- null}
- -t 0.255828285714286 -s 0 -d 1 -p tcp -e 2271 -c 0 -i 9 -a 0 -x {0.0 1.0 9 ------- null}
h -t 0.255828285714286 -s 0 -d 1 -p tcp -e 2271 -c 0 -i 9 -a 0 -x {0.0 1.0 -1 ------- null}
- -t 0.256477142857143 -s 0 -d 1 -p tcp -e 2271 -c 0 -i 10 -a 0 -x {0.0 1.0 10 ------- null}
h -t 0.256477142857143 -s 0 -d 1 -p tcp -e 2271 -c 0 -i 10 -a 0 -x {0.0 1.0 -1 ------- null}
- -t 0.257126 -s 0 -d 1 -p tcp -e 2271 -c 0 -i 11 -a 0 -x {0.0 1.0 11 ------- null}
h -t 0.257126 -s 0 -d 1 -p tcp -e 2271 -c 0 -i 11 -a 0 -x {0.0 1.0 -1 ------- null}
- -t 0.257774857142857 -s 0 -d 1 -p tcp -e 2271 -c 0 -i 12 -a 0 -x {0.0 1.0 12 ------- null}
h -t 0.257774857142857 -s 0 -d 1 -p tcp -e 2271 -c 0 -i 12 -a 0 -x {0.0 1.0 -1 ------- null}
- -t 0.258423714285714 -s 0 -d 1 -p tcp -e 2271 -c 0 -i 13 -a 0 -x {0.0 1.0 13 ------- null}
h -t 0.258423714285714 -s 0 -d 1 -p tcp -e 2271 -c 0 -i 13 -a 0 -x {0.0 1.0 -1 ------- null}
- -t 0.259072571428571 -s 0 -d 1 -p tcp -e 2271 -c 0 -i 14 -a 0 -x {0.0 1.0 14 ------- null}
h -t 0.259072571428571 -s 0 -d 1 -p tcp -e 2271 -c 0 -i 14 -a 0 -x {0.0 1.0 -1 ------- null}
- -t 0.259721428571428 -s 0 -d 1 -p tcp -e 2271 -c 0 -i 15 -a 0 -x {0.0 1.0 15 ------- null}
h -t 0.259721428571428 -s 0 -d 1 -p tcp -e 2271 -c 0 -i 15 -a 0 -x {0.0 1.0 -1 ------- null}
- -t 0.260370285714285 -s 0 -d 1 -p tcp -e 2271 -c 0 -i 16 -a 0 -x {0.0 1.0 16 ------- null}
h -t 0.260370285714285 -s 0 -d 1 -p tcp -e 2271 -c 0 -i 16 -a 0 -x {0.0 1.0 -1 ------- null}
- -t 0.261019142857142 -s 0 -d 1 -p tcp -e 2271 -c 0 -i 17 -a 0 -x {0.0 1.0 17 ------- null}
h -t 0.261019142857142 -s 0 -d 1 -p tcp -e 2271 -c 0 -i 17 -a 0 -x {0.0 1.0 -1 ------- null}
- -t 0.261668 -s 0 -d 1 -p tcp -e 2271 -c 0 -i 18 -a 0 -x {0.0 1.0 18 ------- null}
h -t 0.261668 -s 0 -d 1 -p tcp -e 2271 -c 0 -i 18 -a 0 -x {0.0 1.0 -1 ------- null}
- -t 0.262316857142857 -s 0 -d 1 -p tcp -e 2271 -c 0 -i 19 -a 0 -x {0.0 1.0 19 ------- null}
h -t 0.262316857142857 -s 0 -d 1 -p tcp -e 2271 -c 0 -i 19 -a 0 -x {0.0 1.0 -1 ------- null}
- -t 0.262965714285714 -s 0 -d 1 -p tcp -e 2271 -c 0 -i 20 -a 0 -x {0.0 1.0 20 ------- null}
h -t 0.262965714285714 -s 0 -d 1 -p tcp -e 2271 -c 0 -i 20 -a 0 -x {0.0 1.0 -1 ------- null}
- -t 0.263614571428571 -s 0 -d 1 -p tcp -e 2271 -c 0 -i 21 -a 0 -x {0.0 1.0 21 ------- null}
h -t 0.263614571428571 -s 0 -d 1 -p tcp -e 2271 -c 0 -i 21 -a 0 -x {0.0 1.0 -1 ------- null}
- -t 0.264263428571428 -s 0 -d 1 -p tcp -e 2271 -c 0 -i 22 -a 0 -x {0.0 1.0 22 ------- null}
h -t 0.264263428571428 -s 0 -d 1 -p tcp -e 2271 -c 0 -i 22 -a 0 -x {0.0 1.0 -1 ------- null}
- -t 0.264912285714285 -s 0 -d 1 -p tcp -e 2271 -c 0 -i 23 -a 0 -x {0.0 1.0 23 ------- null}
h -t 0.264912285714285 -s 0 -d 1 -p tcp -e 2271 -c 0 -i 23 -a 0 -x {0.0 1.0 -1 ------- null}
- -t 0.265561142857142 -s 0 -d 1 -p tcp -e 2271 -c 0 -i 24 -a 0 -x {0.0 1.0 24 ------- null}
h -t 0.265561142857142 -s 0 -d 1 -p tcp -e 2271 -c 0 -i 24 -a 0 -x {0.0 1.0 -1 ------- null}
- -t 0.266209999999999 -s 0 -d 1 -p tcp -e 2271 -c 0 -i 25 -a 0 -x {0.0 1.0 25 ------- null}
h -t 0.266209999999999 -s 0 -d 1 -p tcp -e 2271 -c 0 -i 25 -a 0 -x {0.0 1.0 -1 ------- null}
- -t 0.266858857142857 -s 0 -d 1 -p tcp -e 2271 -c 0 -i 26 -a 0 -x {0.0 1.0 26 ------- null}
h -t 0.266858857142857 -s 0 -d 1 -p tcp -e 2271 -c 0 -i 26 -a 0 -x {0.0 1.0 -1 ------- null}
- -t 0.267507714285714 -s 0 -d 1 -p tcp -e 2271 -c 0 -i 27 -a 0 -x {0.0 1.0 27 ------- null}
h -t 0.267507714285714 -s 0 -d 1 -p tcp -e 2271 -c 0 -i 27 -a 0 -x {0.0 1.0 -1 ------- null}
- -t 0.268156571428571 -s 0 -d 1 -p tcp -e 2271 -c 0 -i 28 -a 0 -x {0.0 1.0 28 ------- null}
h -t 0.268156571428571 -s 0 -d 1 -p tcp -e 2271 -c 0 -i 28 -a 0 -x {0.0 1.0 -1 ------- null}
- -t 0.268805428571428 -s 0 -d 1 -p tcp -e 2271 -c 0 -i 29 -a 0 -x {0.0 1.0 29 ------- null}
h -t 0.268805428571428 -s 0 -d 1 -p tcp -e 2271 -c 0 -i 29 -a 0 -x {0.0 1.0 -1 ------- null}
- -t 0.269454285714285 -s 0 -d 1 -p tcp -e 2271 -c 0 -i 30 -a 0 -x {0.0 1.0 30 ------- null}
h -t 0.269454285714285 -s 0 -d 1 -p tcp -e 2271 -c 0 -i 30 -a 0 -x {0.0 1.0 -1 ------- null}
- -t 0.270103142857142 -s 0 -d 1 -p tcp -e 2271 -c 0 -i 31 -a 0 -x {0.0 1.0 31 ------- null}
h -t 0.270103142857142 -s 0 -d 1 -p tcp -e 2271 -c 0 -i 31 -a 0 -x {0.0 1.0 -1 ------- null}
- -t 0.270751999999999 -s 0 -d 1 -p tcp -e 2271 -c 0 -i 32 -a 0 -x {0.0 1.0 32 ------- null}
h -t 0.270751999999999 -s 0 -d 1 -p tcp -e 2271 -c 0 -i 32 -a 0 -x {0.0 1.0 -1 ------- null}
- -t 0.271400857142856 -s 0 -d 1 -p tcp -e 2271 -c 0 -i 33 -a 0 -x {0.0 1.0 33 ------- null}
h -t 0.271400857142856 -s 0 -d 1 -p tcp -e 2271 -c 0 -i 33 -a 0 -x {0.0 1.0 -1 ------- null}
- -t 0.272049714285713 -s 0 -d 1 -p tcp -e 2271 -c 0 -i 34 -a 0 -x {0.0 1.0 34 ------- null}
h -t 0.272049714285713 -s 0 -d 1 -p tcp -e 2271 -c 0 -i 34 -a 0 -x {0.0 1.0 -1 ------- null}
- -t 0.272698571428571 -s 0 -d 1 -p tcp -e 2271 -c 0 -i 35 -a 0 -x {0.0 1.0 35 ------- null}
h -t 0.272698571428571 -s 0 -d 1 -p tcp -e 2271 -c 0 -i 35 -a 0 -x {0.0 1.0 -1 ------- null}
- -t 0.273347428571428 -s 0 -d 1 -p tcp -e 2271 -c 0 -i 36 -a 0 -x {0.0 1.0 36 ------- null}
h -t 0.273347428571428 -s 0 -d 1 -p tcp -e 2271 -c 0 -i 36 -a 0 -x {0.0 1.0 -1 ------- null}
- -t 0.273996285714285 -s 0 -d 1 -p tcp -e 2271 -c 0 -i 37 -a 0 -x {0.0 1.0 37 ------- null}
h -t 0.273996285714285 -s 0 -d 1 -p tcp -e 2271 -c 0 -i 37 -a 0 -x {0.0 1.0 -1 ------- null}
- -t 0.274645142857142 -s 0 -d 1 -p tcp -e 2271 -c 0 -i 38 -a 0 -x {0.0 1.0 38 ------- null}
h -t 0.274645142857142 -s 0 -d 1 -p tcp -e 2271 -c 0 -i 38 -a 0 -x {0.0 1.0 -1 ------- null}
- -t 0.275293999999999 -s 0 -d 1 -p tcp -e 2271 -c 0 -i 39 -a 0 -x {0.0 1.0 39 ------- null}
h -t 0.275293999999999 -s 0 -d 1 -p tcp -e 2271 -c 0 -i 39 -a 0 -x {0.0 1.0 -1 ------- null}
- -t 0.275942857142856 -s 0 -d 1 -p tcp -e 2271 -c 0 -i 40 -a 0 -x {0.0 1.0 40 ------- null}
h -t 0.275942857142856 -s 0 -d 1 -p tcp -e 2271 -c 0 -i 40 -a 0 -x {0.0 1.0 -1 ------- null}
- -t 0.276591714285713 -s 0 -d 1 -p tcp -e 2271 -c 0 -i 41 -a 0 -x {0.0 1.0 41 ------- null}
h -t 0.276591714285713 -s 0 -d 1 -p tcp -e 2271 -c 0 -i 41 -a 0 -x {0.0 1.0 -1 ------- null}
- -t 0.27724057142857 -s 0 -d 1 -p tcp -e 2271 -c 0 -i 42 -a 0 -x {0.0 1.0 42 ------- null}
h -t 0.27724057142857 -s 0 -d 1 -p tcp -e 2271 -c 0 -i 42 -a 0 -x {0.0 1.0 -1 ------- null}
- -t 0.277889428571428 -s 0 -d 1 -p tcp -e 2271 -c 0 -i 43 -a 0 -x {0.0 1.0 43 ------- null}
h -t 0.277889428571428 -s 0 -d 1 -p tcp -e 2271 -c 0 -i 43 -a 0 -x {0.0 1.0 -1 ------- null}
- -t 0.278538285714285 -s 0 -d 1 -p tcp -e 2271 -c 0 -i 44 -a 0 -x {0.0 1.0 44 ------- null}
h -t 0.278538285714285 -s 0 -d 1 -p tcp -e 2271 -c 0 -i 44 -a 0 -x {0.0 1.0 -1 ------- null}
- -t 0.279187142857142 -s 0 -d 1 -p tcp -e 2271 -c 0 -i 45 -a 0 -x {0.0 1.0 45 ------- null}
h -t 0.279187142857142 -s 0 -d 1 -p tcp -e 2271 -c 0 -i 45 -a 0 -x {0.0 1.0 -1 ------- null}
- -t 0.279835999999999 -s 0 -d 1 -p tcp -e 2271 -c 0 -i 46 -a 0 -x {0.0 1.0 46 ------- null}
h -t 0.279835999999999 -s 0 -d 1 -p tcp -e 2271 -c 0 -i 46 -a 0 -x {0.0 1.0 -1 ------- null}
- -t 0.280484857142856 -s 0 -d 1 -p tcp -e 2271 -c 0 -i 47 -a 0 -x {0.0 1.0 47 ------- null}
h -t 0.280484857142856 -s 0 -d 1 -p tcp -e 2271 -c 0 -i 47 -a 0 -x {0.0 1.0 -1 ------- null}
- -t 0.281133714285713 -s 0 -d 1 -p tcp -e 2271 -c 0 -i 48 -a 0 -x {0.0 1.0 48 ------- null}
h -t 0.281133714285713 -s 0 -d 1 -p tcp -e 2271 -c 0 -i 48 -a 0 -x {0.0 1.0 -1 ------- null}
- -t 0.28178257142857 -s 0 -d 1 -p tcp -e 2271 -c 0 -i 49 -a 0 -x {0.0 1.0 49 ------- null}
h -t 0.28178257142857 -s 0 -d 1 -p tcp -e 2271 -c 0 -i 49 -a 0 -x {0.0 1.0 -1 ------- null}
- -t 0.282431428571427 -s 0 -d 1 -p tcp -e 2271 -c 0 -i 50 -a 0 -x {0.0 1.0 50 ------- null}
h -t 0.282431428571427 -s 0 -d 1 -p tcp -e 2271 -c 0 -i 50 -a 0 -x {0.0 1.0 -1 ------- null}
- -t 0.283080285714284 -s 0 -d 1 -p tcp -e 2271 -c 0 -i 51 -a 0 -x {0.0 1.0 51 ------- null}
h -t 0.283080285714284 -s 0 -d 1 -p tcp -e 2271 -c 0 -i 51 -a 0 -x {0.0 1.0 -1 ------- null}
- -t 0.283729142857142 -s 0 -d 1 -p tcp -e 2271 -c 0 -i 52 -a 0 -x {0.0 1.0 52 ------- null}
h -t 0.283729142857142 -s 0 -d 1 -p tcp -e 2271 -c 0 -i 52 -a 0 -x {0.0 1.0 -1 ------- null}
- -t 0.284377999999999 -s 0 -d 1 -p tcp -e 2271 -c 0 -i 53 -a 0 -x {0.0 1.0 53 ------- null}
h -t 0.284377999999999 -s 0 -d 1 -p tcp -e 2271 -c 0 -i 53 -a 0 -x {0.0 1.0 -1 ------- null}
- -t 0.285026857142856 -s 0 -d 1 -p tcp -e 2271 -c 0 -i 54 -a 0 -x {0.0 1.0 54 ------- null}
h -t 0.285026857142856 -s 0 -d 1 -p tcp -e 2271 -c 0 -i 54 -a 0 -x {0.0 1.0 -1 ------- null}
- -t 0.285675714285713 -s 0 -d 1 -p tcp -e 2271 -c 0 -i 55 -a 0 -x {0.0 1.0 55 ------- null}
h -t 0.285675714285713 -s 0 -d 1 -p tcp -e 2271 -c 0 -i 55 -a 0 -x {0.0 1.0 -1 ------- null}
- -t 0.28632457142857 -s 0 -d 1 -p tcp -e 2271 -c 0 -i 56 -a 0 -x {0.0 1.0 56 ------- null}
h -t 0.28632457142857 -s 0 -d 1 -p tcp -e 2271 -c 0 -i 56 -a 0 -x {0.0 1.0 -1 ------- null}
- -t 0.286973428571427 -s 0 -d 1 -p tcp -e 2271 -c 0 -i 57 -a 0 -x {0.0 1.0 57 ------- null}
h -t 0.286973428571427 -s 0 -d 1 -p tcp -e 2271 -c 0 -i 57 -a 0 -x {0.0 1.0 -1 ------- null}
- -t 0.287622285714284 -s 0 -d 1 -p tcp -e 2271 -c 0 -i 58 -a 0 -x {0.0 1.0 58 ------- null}
h -t 0.287622285714284 -s 0 -d 1 -p tcp -e 2271 -c 0 -i 58 -a 0 -x {0.0 1.0 -1 ------- null}
- -t 0.288271142857141 -s 0 -d 1 -p tcp -e 2271 -c 0 -i 59 -a 0 -x {0.0 1.0 59 ------- null}
h -t 0.288271142857141 -s 0 -d 1 -p tcp -e 2271 -c 0 -i 59 -a 0 -x {0.0 1.0 -1 ------- null}
- -t 0.288919999999999 -s 0 -d 1 -p tcp -e 2271 -c 0 -i 60 -a 0 -x {0.0 1.0 60 ------- null}
h -t 0.288919999999999 -s 0 -d 1 -p tcp -e 2271 -c 0 -i 60 -a 0 -x {0.0 1.0 -1 ------- null}
- -t 0.289568857142856 -s 0 -d 1 -p tcp -e 2271 -c 0 -i 61 -a 0 -x {0.0 1.0 61 ------- null}
h -t 0.289568857142856 -s 0 -d 1 -p tcp -e 2271 -c 0 -i 61 -a 0 -x {0.0 1.0 -1 ------- null}
- -t 0.290217714285713 -s 0 -d 1 -p tcp -e 2271 -c 0 -i 62 -a 0 -x {0.0 1.0 62 ------- null}
h -t 0.290217714285713 -s 0 -d 1 -p tcp -e 2271 -c 0 -i 62 -a 0 -x {0.0 1.0 -1 ------- null}
- -t 0.29086657142857 -s 0 -d 1 -p tcp -e 2271 -c 0 -i 63 -a 0 -x {0.0 1.0 63 ------- null}
h -t 0.29086657142857 -s 0 -d 1 -p tcp -e 2271 -c 0 -i 63 -a 0 -x {0.0 1.0 -1 ------- null}
- -t 0.291515428571427 -s 0 -d 1 -p tcp -e 2271 -c 0 -i 64 -a 0 -x {0.0 1.0 64 ------- null}
h -t 0.291515428571427 -s 0 -d 1 -p tcp -e 2271 -c 0 -i 64 -a 0 -x {0.0 1.0 -1 ------- null}
- -t 0.292164285714284 -s 0 -d 1 -p tcp -e 2271 -c 0 -i 65 -a 0 -x {0.0 1.0 65 ------- null}
h -t 0.292164285714284 -s 0 -d 1 -p tcp -e 2271 -c 0 -i 65 -a 0 -x {0.0 1.0 -1 ------- null}
- -t 0.292813142857141 -s 0 -d 1 -p tcp -e 2271 -c 0 -i 66 -a 0 -x {0.0 1.0 66 ------- null}
h -t 0.292813142857141 -s 0 -d 1 -p tcp -e 2271 -c 0 -i 66 -a 0 -x {0.0 1.0 -1 ------- null}
- -t 0.293461999999998 -s 0 -d 1 -p tcp -e 2271 -c 0 -i 67 -a 0 -x {0.0 1.0 67 ------- null}
h -t 0.293461999999998 -s 0 -d 1 -p tcp -e 2271 -c 0 -i 67 -a 0 -x {0.0 1.0 -1 ------- null}
- -t 0.294110857142855 -s 0 -d 1 -p tcp -e 2271 -c 0 -i 68 -a 0 -x {0.0 1.0 68 ------- null}
h -t 0.294110857142855 -s 0 -d 1 -p tcp -e 2271 -c 0 -i 68 -a 0 -x {0.0 1.0 -1 ------- null}
- -t 0.294759714285713 -s 0 -d 1 -p tcp -e 2271 -c 0 -i 69 -a 0 -x {0.0 1.0 69 ------- null}
h -t 0.294759714285713 -s 0 -d 1 -p tcp -e 2271 -c 0 -i 69 -a 0 -x {0.0 1.0 -1 ------- null}
- -t 0.29540857142857 -s 0 -d 1 -p tcp -e 2271 -c 0 -i 70 -a 0 -x {0.0 1.0 70 ------- null}
h -t 0.29540857142857 -s 0 -d 1 -p tcp -e 2271 -c 0 -i 70 -a 0 -x {0.0 1.0 -1 ------- null}
- -t 0.296057428571427 -s 0 -d 1 -p tcp -e 2271 -c 0 -i 71 -a 0 -x {0.0 1.0 71 ------- null}
h -t 0.296057428571427 -s 0 -d 1 -p tcp -e 2271 -c 0 -i 71 -a 0 -x {0.0 1.0 -1 ------- null}
- -t 0.296706285714284 -s 0 -d 1 -p tcp -e 2271 -c 0 -i 72 -a 0 -x {0.0 1.0 72 ------- null}
h -t 0.296706285714284 -s 0 -d 1 -p tcp -e 2271 -c 0 -i 72 -a 0 -x {0.0 1.0 -1 ------- null}
- -t 0.297355142857141 -s 0 -d 1 -p tcp -e 2271 -c 0 -i 73 -a 0 -x {0.0 1.0 73 ------- null}
h -t 0.297355142857141 -s 0 -d 1 -p tcp -e 2271 -c 0 -i 73 -a 0 -x {0.0 1.0 -1 ------- null}
- -t 0.298003999999998 -s 0 -d 1 -p tcp -e 2271 -c 0 -i 74 -a 0 -x {0.0 1.0 74 ------- null}
h -t 0.298003999999998 -s 0 -d 1 -p tcp -e 2271 -c 0 -i 74 -a 0 -x {0.0 1.0 -1 ------- null}
- -t 0.298652857142855 -s 0 -d 1 -p tcp -e 2271 -c 0 -i 75 -a 0 -x {0.0 1.0 75 ------- null}
h -t 0.298652857142855 -s 0 -d 1 -p tcp -e 2271 -c 0 -i 75 -a 0 -x {0.0 1.0 -1 ------- null}
- -t 0.299301714285712 -s 0 -d 1 -p tcp -e 2271 -c 0 -i 76 -a 0 -x {0.0 1.0 76 ------- null}
h -t 0.299301714285712 -s 0 -d 1 -p tcp -e 2271 -c 0 -i 76 -a 0 -x {0.0 1.0 -1 ------- null}
- -t 0.29995057142857 -s 0 -d 1 -p tcp -e 2271 -c 0 -i 77 -a 0 -x {0.0 1.0 77 ------- null}
h -t 0.29995057142857 -s 0 -d 1 -p tcp -e 2271 -c 0 -i 77 -a 0 -x {0.0 1.0 -1 ------- null}
- -t 0.300599428571427 -s 0 -d 1 -p tcp -e 2271 -c 0 -i 78 -a 0 -x {0.0 1.0 78 ------- null}
h -t 0.300599428571427 -s 0 -d 1 -p tcp -e 2271 -c 0 -i 78 -a 0 -x {0.0 1.0 -1 ------- null}
- -t 0.301248285714284 -s 0 -d 1 -p tcp -e 2271 -c 0 -i 79 -a 0 -x {0.0 1.0 79 ------- null}
h -t 0.301248285714284 -s 0 -d 1 -p tcp -e 2271 -c 0 -i 79 -a 0 -x {0.0 1.0 -1 ------- null}
- -t 0.301897142857141 -s 0 -d 1 -p tcp -e 2271 -c 0 -i 80 -a 0 -x {0.0 1.0 80 ------- null}
h -t 0.301897142857141 -s 0 -d 1 -p tcp -e 2271 -c 0 -i 80 -a 0 -x {0.0 1.0 -1 ------- null}
- -t 0.302545999999998 -s 0 -d 1 -p tcp -e 2271 -c 0 -i 81 -a 0 -x {0.0 1.0 81 ------- null}
h -t 0.302545999999998 -s 0 -d 1 -p tcp -e 2271 -c 0 -i 81 -a 0 -x {0.0 1.0 -1 ------- null}
- -t 0.303194857142855 -s 0 -d 1 -p tcp -e 2271 -c 0 -i 82 -a 0 -x {0.0 1.0 82 ------- null}
h -t 0.303194857142855 -s 0 -d 1 -p tcp -e 2271 -c 0 -i 82 -a 0 -x {0.0 1.0 -1 ------- null}
- -t 0.303843714285712 -s 0 -d 1 -p tcp -e 2271 -c 0 -i 83 -a 0 -x {0.0 1.0 83 ------- null}
h -t 0.303843714285712 -s 0 -d 1 -p tcp -e 2271 -c 0 -i 83 -a 0 -x {0.0 1.0 -1 ------- null}
- -t 0.304492571428569 -s 0 -d 1 -p tcp -e 2271 -c 0 -i 84 -a 0 -x {0.0 1.0 84 ------- null}
h -t 0.304492571428569 -s 0 -d 1 -p tcp -e 2271 -c 0 -i 84 -a 0 -x {0.0 1.0 -1 ------- null}
- -t 0.305141428571426 -s 0 -d 1 -p tcp -e 2271 -c 0 -i 85 -a 0 -x {0.0 1.0 85 ------- null}
h -t 0.305141428571426 -s 0 -d 1 -p tcp -e 2271 -c 0 -i 85 -a 0 -x {0.0 1.0 -1 ------- null}
- -t 0.305790285714284 -s 0 -d 1 -p tcp -e 2271 -c 0 -i 86 -a 0 -x {0.0 1.0 86 ------- null}
h -t 0.305790285714284 -s 0 -d 1 -p tcp -e 2271 -c 0 -i 86 -a 0 -x {0.0 1.0 -1 ------- null}
- -t 0.306439142857141 -s 0 -d 1 -p tcp -e 2271 -c 0 -i 87 -a 0 -x {0.0 1.0 87 ------- null}
h -t 0.306439142857141 -s 0 -d 1 -p tcp -e 2271 -c 0 -i 87 -a 0 -x {0.0 1.0 -1 ------- null}
- -t 0.307087999999998 -s 0 -d 1 -p tcp -e 2271 -c 0 -i 88 -a 0 -x {0.0 1.0 88 ------- null}
h -t 0.307087999999998 -s 0 -d 1 -p tcp -e 2271 -c 0 -i 88 -a 0 -x {0.0 1.0 -1 ------- null}
- -t 0.307736857142855 -s 0 -d 1 -p tcp -e 2271 -c 0 -i 89 -a 0 -x {0.0 1.0 89 ------- null}
h -t 0.307736857142855 -s 0 -d 1 -p tcp -e 2271 -c 0 -i 89 -a 0 -x {0.0 1.0 -1 ------- null}
- -t 0.308385714285712 -s 0 -d 1 -p tcp -e 2271 -c 0 -i 90 -a 0 -x {0.0 1.0 90 ------- null}
h -t 0.308385714285712 -s 0 -d 1 -p tcp -e 2271 -c 0 -i 90 -a 0 -x {0.0 1.0 -1 ------- null}
- -t 0.309034571428569 -s 0 -d 1 -p tcp -e 2271 -c 0 -i 91 -a 0 -x {0.0 1.0 91 ------- null}
h -t 0.309034571428569 -s 0 -d 1 -p tcp -e 2271 -c 0 -i 91 -a 0 -x {0.0 1.0 -1 ------- null}
- -t 0.309683428571426 -s 0 -d 1 -p tcp -e 2271 -c 0 -i 92 -a 0 -x {0.0 1.0 92 ------- null}
h -t 0.309683428571426 -s 0 -d 1 -p tcp -e 2271 -c 0 -i 92 -a 0 -x {0.0 1.0 -1 ------- null}
- -t 0.310332285714283 -s 0 -d 1 -p tcp -e 2271 -c 0 -i 93 -a 0 -x {0.0 1.0 93 ------- null}
h -t 0.310332285714283 -s 0 -d 1 -p tcp -e 2271 -c 0 -i 93 -a 0 -x {0.0 1.0 -1 ------- null}
- -t 0.310981142857141 -s 0 -d 1 -p tcp -e 2271 -c 0 -i 94 -a 0 -x {0.0 1.0 94 ------- null}
h -t 0.310981142857141 -s 0 -d 1 -p tcp -e 2271 -c 0 -i 94 -a 0 -x {0.0 1.0 -1 ------- null}
- -t 0.311629999999998 -s 0 -d 1 -p tcp -e 2271 -c 0 -i 95 -a 0 -x {0.0 1.0 95 ------- null}
h -t 0.311629999999998 -s 0 -d 1 -p tcp -e 2271 -c 0 -i 95 -a 0 -x {0.0 1.0 -1 ------- null}
- -t 0.312278857142855 -s 0 -d 1 -p tcp -e 2271 -c 0 -i 96 -a 0 -x {0.0 1.0 96 ------- null}
h -t 0.312278857142855 -s 0 -d 1 -p tcp -e 2271 -c 0 -i 96 -a 0 -x {0.0 1.0 -1 ------- null}
- -t 0.312927714285712 -s 0 -d 1 -p tcp -e 2271 -c 0 -i 97 -a 0 -x {0.0 1.0 97 ------- null}
h -t 0.312927714285712 -s 0 -d 1 -p tcp -e 2271 -c 0 -i 97 -a 0 -x {0.0 1.0 -1 ------- null}
- -t 0.313576571428569 -s 0 -d 1 -p tcp -e 2271 -c 0 -i 98 -a 0 -x {0.0 1.0 98 ------- null}
h -t 0.313576571428569 -s 0 -d 1 -p tcp -e 2271 -c 0 -i 98 -a 0 -x {0.0 1.0 -1 ------- null}
- -t 0.314225428571426 -s 0 -d 1 -p tcp -e 2271 -c 0 -i 99 -a 0 -x {0.0 1.0 99 ------- null}
h -t 0.314225428571426 -s 0 -d 1 -p tcp -e 2271 -c 0 -i 99 -a 0 -x {0.0 1.0 -1 ------- null}
- -t 0.314874285714283 -s 0 -d 1 -p tcp -e 2271 -c 0 -i 100 -a 0 -x {0.0 1.0 100 ------- null}
h -t 0.314874285714283 -s 0 -d 1 -p tcp -e 2271 -c 0 -i 100 -a 0 -x {0.0 1.0 -1 ------- null}
- -t 0.31552314285714 -s 0 -d 1 -p tcp -e 2271 -c 0 -i 101 -a 0 -x {0.0 1.0 101 ------- null}
h -t 0.31552314285714 -s 0 -d 1 -p tcp -e 2271 -c 0 -i 101 -a 0 -x {0.0 1.0 -1 ------- null}
- -t 0.316171999999997 -s 0 -d 1 -p tcp -e 2271 -c 0 -i 102 -a 0 -x {0.0 1.0 102 ------- null}
h -t 0.316171999999997 -s 0 -d 1 -p tcp -e 2271 -c 0 -i 102 -a 0 -x {0.0 1.0 -1 ------- null}
- -t 0.316820857142855 -s 0 -d 1 -p tcp -e 2271 -c 0 -i 103 -a 0 -x {0.0 1.0 103 ------- null}
h -t 0.316820857142855 -s 0 -d 1 -p tcp -e 2271 -c 0 -i 103 -a 0 -x {0.0 1.0 -1 ------- null}
- -t 0.317469714285712 -s 0 -d 1 -p tcp -e 2271 -c 0 -i 104 -a 0 -x {0.0 1.0 104 ------- null}
h -t 0.317469714285712 -s 0 -d 1 -p tcp -e 2271 -c 0 -i 104 -a 0 -x {0.0 1.0 -1 ------- null}