V -t * -v 1.0a5 -a 0
A -t * -n 1 -p 0 -o 0x7fffffff -c 30 -a 1
A -t * -h 1 -m 1073741823 -s 0
c -t * -i 0 -n blue
c -t * -i 1 -n red
n -t * -a 0 -s 0 -S UP -v circle -c black -i black
n -t * -a 1 -s 1 -S UP -v circle -c black -i black
n -t * -a 2 -s 2 -S UP -v circle -c black -i black
n -t * -a 3 -s 3 -S UP -v circle -c black -i black
l -t * -s 1 -d 2 -S UP -r 12000000 -D 0.01 -c black
l -t * -s 2 -d 3 -S UP -r 12000000 -D 0.01 -c black
l -t * -s 3 -d 1 -S UP -r 12000000 -D 0.01 -c black
l -t * -s 0 -d 1 -S UP -r 1200000 -D 0.01 -c black
+ -t 0.000169788487334637 -s 0 -d 1 -p rtProtoDV -e 4 -c 0 -i 0 -a 0 -x {0.2 1.2 -1 ------- null}
- -t 0.000169788487334637 -s 0 -d 1 -p rtProtoDV -e 4 -c 0 -i 0 -a 0 -x {0.2 1.2 -1 ------- null}
h -t 0.000169788487334637 -s 0 -d 1 -p rtProtoDV -e 4 -c 0 -i 0 -a 0 -x {0.2 1.2 -1 ------- null}
+ -t 0.00710233021858257 -s 2 -d 1 -p rtProtoDV -e 4 -c 0 -i 1 -a 0 -x {2.2 1.2 -1 ------- null}
- -t 0.00710233021858257 -s 2 -d 1 -p rtProtoDV -e 4 -c 0 -i 1 -a 0 -x {2.2 1.2 -1 ------- null}
h -t 0.00710233021858257 -s 2 -d 1 -p rtProtoDV -e 4 -c 0 -i 1 -a 0 -x {2.2 1.2 -1 ------- null}
+ -t 0.00710233021858257 -s 2 -d 3 -p rtProtoDV -e 4 -c 0 -i 2 -a 0 -x {2.2 3.2 -1 ------- null}
- -t 0.00710233021858257 -s 2 -d 3 -p rtProtoDV -e 4 -c 0 -i 2 -a 0 -x {2.2 3.2 -1 ------- null}
h -t 0.00710233021858257 -s 2 -d 3 -p rtProtoDV -e 4 -c 0 -i 2 -a 0 -x {2.2 3.2 -1 ------- null}
r -t 0.0101964551540013 -s 0 -d 1 -p rtProtoDV -e 4 -c 0 -i 0 -a 0 -x {0.2 1.2 -1 ------- null}
+ -t 0.0101964551540013 -s 1 -d 0 -p rtProtoDV -e 4 -c 0 -i 3 -a 0 -x {1.2 0.2 -1 ------- null}
- -t 0.0101964551540013 -s 1 -d 0 -p rtProtoDV -e 4 -c 0 -i 3 -a 0 -x {1.2 0.2 -1 ------- null}
h -t 0.0101964551540013 -s 1 -d 0 -p rtProtoDV -e 4 -c 0 -i 3 -a 0 -x {1.2 0.2 -1 ------- null}
+ -t 0.0101964551540013 -s 1 -d 2 -p rtProtoDV -e 4 -c 0 -i 4 -a 0 -x {1.2 2.2 -1 ------- null}
- -t 0.0101964551540013 -s 1 -d 2 -p rtProtoDV -e 4 -c 0 -i 4 -a 0 -x {1.2 2.2 -1 ------- null}
h -t 0.0101964551540013 -s 1 -d 2 -p rtProtoDV -e 4 -c 0 -i 4 -a 0 -x {1.2 2.2 -1 ------- null}
+ -t 0.0101964551540013 -s 1 -d 3 -p rtProtoDV -e 4 -c 0 -i 5 -a 0 -x {1.2 3.2 -1 ------- null}
- -t 0.0101964551540013 -s 1 -d 3 -p rtProtoDV -e 4 -c 0 -i 5 -a 0 -x {1.2 3.2 -1 ------- null}
h -t 0.0101964551540013 -s 1 -d 3 -p rtProtoDV -e 4 -c 0 -i 5 -a 0 -x {1.2 3.2 -1 ------- null}
r -t 0.0171049968852492 -s 2 -d 1 -p rtProtoDV -e 4 -c 0 -i 1 -a 0 -x {2.2 1.2 -1 ------- null}
+ -t 0.0171049968852492 -s 1 -d 0 -p rtProtoDV -e 4 -c 0 -i 6 -a 0 -x {1.2 0.2 -1 ------- null}
- -t 0.0171049968852492 -s 1 -d 0 -p rtProtoDV -e 4 -c 0 -i 6 -a 0 -x {1.2 0.2 -1 ------- null}
h -t 0.0171049968852492 -s 1 -d 0 -p rtProtoDV -e 4 -c 0 -i 6 -a 0 -x {1.2 0.2 -1 ------- null}
+ -t 0.0171049968852492 -s 1 -d 2 -p rtProtoDV -e 4 -c 0 -i 7 -a 0 -x {1.2 2.2 -1 ------- null}
- -t 0.0171049968852492 -s 1 -d 2 -p rtProtoDV -e 4 -c 0 -i 7 -a 0 -x {1.2 2.2 -1 ------- null}
h -t 0.0171049968852492 -s 1 -d 2 -p rtProtoDV -e 4 -c 0 -i 7 -a 0 -x {1.2 2.2 -1 ------- null}
+ -t 0.0171049968852492 -s 1 -d 2 -p rtProtoDV -e 4 -c 0 -i 8 -a 0 -x {1.2 3.2 -1 ------- null}
r -t 0.0171049968852492 -s 2 -d 3 -p rtProtoDV -e 4 -c 0 -i 2 -a 0 -x {2.2 3.2 -1 ------- null}
+ -t 0.0171049968852492 -s 3 -d 2 -p rtProtoDV -e 4 -c 0 -i 9 -a 0 -x {3.2 1.2 -1 ------- null}
- -t 0.0171049968852492 -s 3 -d 2 -p rtProtoDV -e 4 -c 0 -i 9 -a 0 -x {3.2 1.2 -1 ------- null}
h -t 0.0171049968852492 -s 3 -d 2 -p rtProtoDV -e 4 -c 0 -i 9 -a 0 -x {3.2 1.2 -1 ------- null}
+ -t 0.0171049968852492 -s 3 -d 2 -p rtProtoDV -e 4 -c 0 -i 10 -a 0 -x {3.2 2.2 -1 ------- null}
- -t 0.0171076635519159 -s 1 -d 2 -p rtProtoDV -e 4 -c 0 -i 8 -a 0 -x {1.2 3.2 -1 ------- null}
h -t 0.0171076635519159 -s 1 -d 2 -p rtProtoDV -e 4 -c 0 -i 8 -a 0 -x {1.2 3.2 -1 ------- null}
- -t 0.0171076635519159 -s 3 -d 2 -p rtProtoDV -e 4 -c 0 -i 10 -a 0 -x {3.2 2.2 -1 ------- null}
h -t 0.0171076635519159 -s 3 -d 2 -p rtProtoDV -e 4 -c 0 -i 10 -a 0 -x {3.2 2.2 -1 ------- null}
r -t 0.020199121820668 -s 1 -d 2 -p rtProtoDV -e 4 -c 0 -i 4 -a 0 -x {1.2 2.2 -1 ------- null}
+ -t 0.020199121820668 -s 2 -d 1 -p rtProtoDV -e 4 -c 0 -i 11 -a 0 -x {2.2 1.2 -1 ------- null}
- -t 0.020199121820668 -s 2 -d 1 -p rtProtoDV -e 4 -c 0 -i 11 -a 0 -x {2.2 1.2 -1 ------- null}
h -t 0.020199121820668 -s 2 -d 1 -p rtProtoDV -e 4 -c 0 -i 11 -a 0 -x {2.2 1.2 -1 ------- null}
+ -t 0.020199121820668 -s 2 -d 1 -p rtProtoDV -e 4 -c 0 -i 12 -a 0 -x {2.2 3.2 -1 ------- null}
r -t 0.020199121820668 -s 1 -d 3 -p rtProtoDV -e 4 -c 0 -i 5 -a 0 -x {1.2 3.2 -1 ------- null}
+ -t 0.020199121820668 -s 3 -d 1 -p rtProtoDV -e 4 -c 0 -i 13 -a 0 -x {3.2 1.2 -1 ------- null}
- -t 0.020199121820668 -s 3 -d 1 -p rtProtoDV -e 4 -c 0 -i 13 -a 0 -x {3.2 1.2 -1 ------- null}
h -t 0.020199121820668 -s 3 -d 1 -p rtProtoDV -e 4 -c 0 -i 13 -a 0 -x {3.2 1.2 -1 ------- null}
+ -t 0.020199121820668 -s 3 -d 2 -p rtProtoDV -e 4 -c 0 -i 14 -a 0 -x {3.2 2.2 -1 ------- null}
- -t 0.020199121820668 -s 3 -d 2 -p rtProtoDV -e 4 -c 0 -i 14 -a 0 -x {3.2 2.2 -1 ------- null}
h -t 0.020199121820668 -s 3 -d 2 -p rtProtoDV -e 4 -c 0 -i 14 -a 0 -x {3.2 2.2 -1 ------- null}
- -t 0.0202017884873346 -s 2 -d 1 -p rtProtoDV -e 4 -c 0 -i 12 -a 0 -x {2.2 3.2 -1 ------- null}
h -t 0.0202017884873346 -s 2 -d 1 -p rtProtoDV -e 4 -c 0 -i 12 -a 0 -x {2.2 3.2 -1 ------- null}
r -t 0.020223121820668 -s 1 -d 0 -p rtProtoDV -e 4 -c 0 -i 3 -a 0 -x {1.2 0.2 -1 ------- null}
+ -t 0.020223121820668 -s 0 -d 1 -p rtProtoDV -e 4 -c 0 -i 15 -a 0 -x {0.2 1.2 -1 ------- null}
- -t 0.020223121820668 -s 0 -d 1 -p rtProtoDV -e 4 -c 0 -i 15 -a 0 -x {0.2 1.2 -1 ------- null}
h -t 0.020223121820668 -s 0 -d 1 -p rtProtoDV -e 4 -c 0 -i 15 -a 0 -x {0.2 1.2 -1 ------- null}
r -t 0.0271076635519159 -s 1 -d 2 -p rtProtoDV -e 4 -c 0 -i 7 -a 0 -x {1.2 2.2 -1 ------- null}
+ -t 0.0271076635519159 -s 2 -d 1 -p rtProtoDV -e 4 -c 0 -i 16 -a 0 -x {2.2 1.2 -1 ------- null}
- -t 0.0271076635519159 -s 2 -d 1 -p rtProtoDV -e 4 -c 0 -i 16 -a 0 -x {2.2 1.2 -1 ------- null}
h -t 0.0271076635519159 -s 2 -d 1 -p rtProtoDV -e 4 -c 0 -i 16 -a 0 -x {2.2 1.2 -1 ------- null}
+ -t 0.0271076635519159 -s 2 -d 1 -p rtProtoDV -e 4 -c 0 -i 17 -a 0 -x {2.2 3.2 -1 ------- null}
r -t 0.0271076635519159 -s 3 -d 2 -p rtProtoDV -e 4 -c 0 -i 9 -a 0 -x {3.2 1.2 -1 ------- null}
+ -t 0.0271076635519159 -s 2 -d 1 -p rtProtoDV -e 4 -c 0 -i 9 -a 0 -x {3.2 1.2 -1 ------- null}
r -t 0.0271103302185826 -s 1 -d 2 -p rtProtoDV -e 4 -c 0 -i 8 -a 0 -x {1.2 3.2 -1 ------- null}
+ -t 0.0271103302185826 -s 2 -d 1 -p rtProtoDV -e 4 -c 0 -i 8 -a 0 -x {1.2 3.2 -1 ------- null}
r -t 0.0271103302185826 -s 3 -d 2 -p rtProtoDV -e 4 -c 0 -i 10 -a 0 -x {3.2 2.2 -1 ------- null}
+ -t 0.0271103302185826 -s 2 -d 1 -p rtProtoDV -e 4 -c 0 -i 18 -a 0 -x {2.2 1.2 -1 ------- null}
+ -t 0.0271103302185826 -s 2 -d 3 -p rtProtoDV -e 4 -c 0 -i 19 -a 0 -x {2.2 3.2 -1 ------- null}
- -t 0.0271103302185826 -s 2 -d 3 -p rtProtoDV -e 4 -c 0 -i 19 -a 0 -x {2.2 3.2 -1 ------- null}
h -t 0.0271103302185826 -s 2 -d 3 -p rtProtoDV -e 4 -c 0 -i 19 -a 0 -x {2.2 3.2 -1 ------- null}
- -t 0.0271103302185826 -s 2 -d 1 -p rtProtoDV -e 4 -c 0 -i 17 -a 0 -x {2.2 3.2 -1 ------- null}
h -t 0.0271103302185826 -s 2 -d 1 -p rtProtoDV -e 4 -c 0 -i 17 -a 0 -x {2.2 3.2 -1 ------- null}
- -t 0.0271129968852492 -s 2 -d 1 -p rtProtoDV -e 4 -c 0 -i 9 -a 0 -x {3.2 1.2 -1 ------- null}
h -t 0.0271129968852492 -s 2 -d 1 -p rtProtoDV -e 4 -c 0 -i 9 -a 0 -x {3.2 1.2 -1 ------- null}
- -t 0.0271156635519159 -s 2 -d 1 -p rtProtoDV -e 4 -c 0 -i 8 -a 0 -x {1.2 3.2 -1 ------- null}
h -t 0.0271156635519159 -s 2 -d 1 -p rtProtoDV -e 4 -c 0 -i 8 -a 0 -x {1.2 3.2 -1 ------- null}
- -t 0.0271183302185826 -s 2 -d 1 -p rtProtoDV -e 4 -c 0 -i 18 -a 0 -x {2.2 1.2 -1 ------- null}
h -t 0.0271183302185826 -s 2 -d 1 -p rtProtoDV -e 4 -c 0 -i 18 -a 0 -x {2.2 1.2 -1 ------- null}
r -t 0.0271316635519159 -s 1 -d 0 -p rtProtoDV -e 4 -c 0 -i 6 -a 0 -x {1.2 0.2 -1 ------- null}
+ -t 0.0271316635519159 -s 0 -d 1 -p rtProtoDV -e 4 -c 0 -i 20 -a 0 -x {0.2 1.2 -1 ------- null}
- -t 0.0271316635519159 -s 0 -d 1 -p rtProtoDV -e 4 -c 0 -i 20 -a 0 -x {0.2 1.2 -1 ------- null}
h -t 0.0271316635519159 -s 0 -d 1 -p rtProtoDV -e 4 -c 0 -i 20 -a 0 -x {0.2 1.2 -1 ------- null}
r -t 0.0302017884873346 -s 2 -d 1 -p rtProtoDV -e 4 -c 0 -i 11 -a 0 -x {2.2 1.2 -1 ------- null}
+ -t 0.0302017884873346 -s 1 -d 0 -p rtProtoDV -e 4 -c 0 -i 21 -a 0 -x {1.2 0.2 -1 ------- null}
- -t 0.0302017884873346 -s 1 -d 0 -p rtProtoDV -e 4 -c 0 -i 21 -a 0 -x {1.2 0.2 -1 ------- null}
h -t 0.0302017884873346 -s 1 -d 0 -p rtProtoDV -e 4 -c 0 -i 21 -a 0 -x {1.2 0.2 -1 ------- null}
+ -t 0.0302017884873346 -s 1 -d 2 -p rtProtoDV -e 4 -c 0 -i 22 -a 0 -x {1.2 2.2 -1 ------- null}
- -t 0.0302017884873346 -s 1 -d 2 -p rtProtoDV -e 4 -c 0 -i 22 -a 0 -x {1.2 2.2 -1 ------- null}
h -t 0.0302017884873346 -s 1 -d 2 -p rtProtoDV -e 4 -c 0 -i 22 -a 0 -x {1.2 2.2 -1 ------- null}
+ -t 0.0302017884873346 -s 1 -d 2 -p rtProtoDV -e 4 -c 0 -i 23 -a 0 -x {1.2 3.2 -1 ------- null}
r -t 0.0302017884873346 -s 3 -d 1 -p rtProtoDV -e 4 -c 0 -i 13 -a 0 -x {3.2 1.2 -1 ------- null}
+ -t 0.0302017884873346 -s 1 -d 0 -p rtProtoDV -e 4 -c 0 -i 24 -a 0 -x {1.2 0.2 -1 ------- null}
+ -t 0.0302017884873346 -s 1 -d 2 -p rtProtoDV -e 4 -c 0 -i 25 -a 0 -x {1.2 2.2 -1 ------- null}
+ -t 0.0302017884873346 -s 1 -d 3 -p rtProtoDV -e 4 -c 0 -i 26 -a 0 -x {1.2 3.2 -1 ------- null}
- -t 0.0302017884873346 -s 1 -d 3 -p rtProtoDV -e 4 -c 0 -i 26 -a 0 -x {1.2 3.2 -1 ------- null}
h -t 0.0302017884873346 -s 1 -d 3 -p rtProtoDV -e 4 -c 0 -i 26 -a 0 -x {1.2 3.2 -1 ------- null}
r -t 0.0302017884873346 -s 3 -d 2 -p rtProtoDV -e 4 -c 0 -i 14 -a 0 -x {3.2 2.2 -1 ------- null}
r -t 0.0302044551540013 -s 2 -d 1 -p rtProtoDV -e 4 -c 0 -i 12 -a 0 -x {2.2 3.2 -1 ------- null}
+ -t 0.0302044551540013 -s 1 -d 3 -p rtProtoDV -e 4 -c 0 -i 12 -a 0 -x {2.2 3.2 -1 ------- null}
- -t 0.0302044551540013 -s 1 -d 2 -p rtProtoDV -e 4 -c 0 -i 23 -a 0 -x {1.2 3.2 -1 ------- null}
h -t 0.0302044551540013 -s 1 -d 2 -p rtProtoDV -e 4 -c 0 -i 23 -a 0 -x {1.2 3.2 -1 ------- null}
- -t 0.0302044551540013 -s 1 -d 3 -p rtProtoDV -e 4 -c 0 -i 12 -a 0 -x {2.2 3.2 -1 ------- null}
h -t 0.0302044551540013 -s 1 -d 3 -p rtProtoDV -e 4 -c 0 -i 12 -a 0 -x {2.2 3.2 -1 ------- null}
- -t 0.030207121820668 -s 1 -d 2 -p rtProtoDV -e 4 -c 0 -i 25 -a 0 -x {1.2 2.2 -1 ------- null}
h -t 0.030207121820668 -s 1 -d 2 -p rtProtoDV -e 4 -c 0 -i 25 -a 0 -x {1.2 2.2 -1 ------- null}
- -t 0.0302284551540013 -s 1 -d 0 -p rtProtoDV -e 4 -c 0 -i 24 -a 0 -x {1.2 0.2 -1 ------- null}
h -t 0.0302284551540013 -s 1 -d 0 -p rtProtoDV -e 4 -c 0 -i 24 -a 0 -x {1.2 0.2 -1 ------- null}
r -t 0.0302497884873346 -s 0 -d 1 -p rtProtoDV -e 4 -c 0 -i 15 -a 0 -x {0.2 1.2 -1 ------- null}
r -t 0.0371103302185826 -s 2 -d 1 -p rtProtoDV -e 4 -c 0 -i 16 -a 0 -x {2.2 1.2 -1 ------- null}
r -t 0.0371129968852492 -s 2 -d 3 -p rtProtoDV -e 4 -c 0 -i 19 -a 0 -x {2.2 3.2 -1 ------- null}
r -t 0.0371129968852492 -s 2 -d 1 -p rtProtoDV -e 4 -c 0 -i 17 -a 0 -x {2.2 3.2 -1 ------- null}
+ -t 0.0371129968852492 -s 1 -d 3 -p rtProtoDV -e 4 -c 0 -i 17 -a 0 -x {2.2 3.2 -1 ------- null}
- -t 0.0371129968852492 -s 1 -d 3 -p rtProtoDV -e 4 -c 0 -i 17 -a 0 -x {2.2 3.2 -1 ------- null}
h -t 0.0371129968852492 -s 1 -d 3 -p rtProtoDV -e 4 -c 0 -i 17 -a 0 -x {2.2 3.2 -1 ------- null}
r -t 0.0371156635519159 -s 2 -d 1 -p rtProtoDV -e 4 -c 0 -i 9 -a 0 -x {3.2 1.2 -1 ------- null}
r -t 0.0371183302185826 -s 2 -d 1 -p rtProtoDV -e 4 -c 0 -i 8 -a 0 -x {1.2 3.2 -1 ------- null}
+ -t 0.0371183302185826 -s 1 -d 3 -p rtProtoDV -e 4 -c 0 -i 8 -a 0 -x {1.2 3.2 -1 ------- null}
- -t 0.0371183302185826 -s 1 -d 3 -p rtProtoDV -e 4 -c 0 -i 8 -a 0 -x {1.2 3.2 -1 ------- null}
h -t 0.0371183302185826 -s 1 -d 3 -p rtProtoDV -e 4 -c 0 -i 8 -a 0 -x {1.2 3.2 -1 ------- null}
r -t 0.0371209968852492 -s 2 -d 1 -p rtProtoDV -e 4 -c 0 -i 18 -a 0 -x {2.2 1.2 -1 ------- null}
r -t 0.0371583302185826 -s 0 -d 1 -p rtProtoDV -e 4 -c 0 -i 20 -a 0 -x {0.2 1.2 -1 ------- null}
r -t 0.0402044551540013 -s 1 -d 2 -p rtProtoDV -e 4 -c 0 -i 22 -a 0 -x {1.2 2.2 -1 ------- null}
r -t 0.0402044551540013 -s 1 -d 3 -p rtProtoDV -e 4 -c 0 -i 26 -a 0 -x {1.2 3.2 -1 ------- null}
r -t 0.040207121820668 -s 1 -d 2 -p rtProtoDV -e 4 -c 0 -i 23 -a 0 -x {1.2 3.2 -1 ------- null}
+ -t 0.040207121820668 -s 2 -d 3 -p rtProtoDV -e 4 -c 0 -i 23 -a 0 -x {1.2 3.2 -1 ------- null}
- -t 0.040207121820668 -s 2 -d 3 -p rtProtoDV -e 4 -c 0 -i 23 -a 0 -x {1.2 3.2 -1 ------- null}
h -t 0.040207121820668 -s 2 -d 3 -p rtProtoDV -e 4 -c 0 -i 23 -a 0 -x {1.2 3.2 -1 ------- null}
r -t 0.040207121820668 -s 1 -d 3 -p rtProtoDV -e 4 -c 0 -i 12 -a 0 -x {2.2 3.2 -1 ------- null}
r -t 0.0402097884873346 -s 1 -d 2 -p rtProtoDV -e 4 -c 0 -i 25 -a 0 -x {1.2 2.2 -1 ------- null}
r -t 0.0402284551540013 -s 1 -d 0 -p rtProtoDV -e 4 -c 0 -i 21 -a 0 -x {1.2 0.2 -1 ------- null}
+ -t 0.0402284551540013 -s 0 -d 1 -p rtProtoDV -e 4 -c 0 -i 27 -a 0 -x {0.2 1.2 -1 ------- null}
- -t 0.0402284551540013 -s 0 -d 1 -p rtProtoDV -e 4 -c 0 -i 27 -a 0 -x {0.2 1.2 -1 ------- null}
h -t 0.0402284551540013 -s 0 -d 1 -p rtProtoDV -e 4 -c 0 -i 27 -a 0 -x {0.2 1.2 -1 ------- null}
r -t 0.040255121820668 -s 1 -d 0 -p rtProtoDV -e 4 -c 0 -i 24 -a 0 -x {1.2 0.2 -1 ------- null}
+ -t 0.040255121820668 -s 0 -d 1 -p rtProtoDV -e 4 -c 0 -i 28 -a 0 -x {0.2 1.2 -1 ------- null}
- -t 0.040255121820668 -s 0 -d 1 -p rtProtoDV -e 4 -c 0 -i 28 -a 0 -x {0.2 1.2 -1 ------- null}
h -t 0.040255121820668 -s 0 -d 1 -p rtProtoDV -e 4 -c 0 -i 28 -a 0 -x {0.2 1.2 -1 ------- null}
+ -t 0.04406133552271 -s 3 -d 1 -p rtProtoDV -e 4 -c 0 -i 29 -a 0 -x {3.2 1.2 -1 ------- null}
- -t 0.04406133552271 -s 3 -d 1 -p rtProtoDV -e 4 -c 0 -i 29 -a 0 -x {3.2 1.2 -1 ------- null}
h -t 0.04406133552271 -s 3 -d 1 -p rtProtoDV -e 4 -c 0 -i 29 -a 0 -x {3.2 1.2 -1 ------- null}
+ -t 0.04406133552271 -s 3 -d 2 -p rtProtoDV -e 4 -c 0 -i 30 -a 0 -x {3.2 2.2 -1 ------- null}
- -t 0.04406133552271 -s 3 -d 2 -p rtProtoDV -e 4 -c 0 -i 30 -a 0 -x {3.2 2.2 -1 ------- null}
h -t 0.04406133552271 -s 3 -d 2 -p rtProtoDV -e 4 -c 0 -i 30 -a 0 -x {3.2 2.2 -1 ------- null}
r -t 0.0471156635519159 -s 1 -d 3 -p rtProtoDV -e 4 -c 0 -i 17 -a 0 -x {2.2 3.2 -1 ------- null}
r -t 0.0471209968852492 -s 1 -d 3 -p rtProtoDV -e 4 -c 0 -i 8 -a 0 -x {1.2 3.2 -1 ------- null}
r -t 0.0502097884873346 -s 2 -d 3 -p rtProtoDV -e 4 -c 0 -i 23 -a 0 -x {1.2 3.2 -1 ------- null}
r -t 0.050255121820668 -s 0 -d 1 -p rtProtoDV -e 4 -c 0 -i 27 -a 0 -x {0.2 1.2 -1 ------- null}
r -t 0.0502817884873346 -s 0 -d 1 -p rtProtoDV -e 4 -c 0 -i 28 -a 0 -x {0.2 1.2 -1 ------- null}
r -t 0.0540640021893767 -s 3 -d 1 -p rtProtoDV -e 4 -c 0 -i 29 -a 0 -x {3.2 1.2 -1 ------- null}
r -t 0.0540640021893767 -s 3 -d 2 -p rtProtoDV -e 4 -c 0 -i 30 -a 0 -x {3.2 2.2 -1 ------- null}
+ -t 0.25 -s 2 -d 1 -p cbr -e 540 -c 0 -i 31 -a 0 -x {2.0 0.0 0 ------- null}
- -t 0.25 -s 2 -d 1 -p cbr -e 540 -c 0 -i 31 -a 0 -x {2.0 0.0 0 ------- null}
h -t 0.25 -s 2 -d 1 -p cbr -e 540 -c 0 -i 31 -a 0 -x {2.0 0.0 -1 ------- null}
+ -t 0.25 -s 3 -d 1 -p cbr -e 540 -c 1 -i 32 -a 1 -x {3.0 1.0 0 ------- null}
- -t 0.25 -s 3 -d 1 -p cbr -e 540 -c 1 -i 32 -a 1 -x {3.0 1.0 0 ------- null}
h -t 0.25 -s 3 -d 1 -p cbr -e 540 -c 1 -i 32 -a 1 -x {3.0 1.0 -1 ------- null}
+ -t 0.255 -s 2 -d 1 -p cbr -e 540 -c 0 -i 33 -a 0 -x {2.0 0.0 1 ------- null}
- -t 0.255 -s 2 -d 1 -p cbr -e 540 -c 0 -i 33 -a 0 -x {2.0 0.0 1 ------- null}
h -t 0.255 -s 2 -d 1 -p cbr -e 540 -c 0 -i 33 -a 0 -x {2.0 0.0 -1 ------- null}
+ -t 0.255 -s 3 -d 1 -p cbr -e 540 -c 1 -i 34 -a 1 -x {3.0 1.0 1 ------- null}
- -t 0.255 -s 3 -d 1 -p cbr -e 540 -c 1 -i 34 -a 1 -x {3.0 1.0 1 ------- null}
h -t 0.255 -s 3 -d 1 -p cbr -e 540 -c 1 -i 34 -a 1 -x {3.0 1.0 -1 ------- null}
+ -t 0.26 -s 2 -d 1 -p cbr -e 540 -c 0 -i 35 -a 0 -x {2.0 0.0 2 ------- null}
- -t 0.26 -s 2 -d 1 -p cbr -e 540 -c 0 -i 35 -a 0 -x {2.0 0.0 2 ------- null}
h -t 0.26 -s 2 -d 1 -p cbr -e 540 -c 0 -i 35 -a 0 -x {2.0 0.0 -1 ------- null}
+ -t 0.26 -s 3 -d 1 -p cbr -e 540 -c 1 -i 36 -a 1 -x {3.0 1.0 2 ------- null}
- -t 0.26 -s 3 -d 1 -p cbr -e 540 -c 1 -i 36 -a 1 -x {3.0 1.0 2 ------- null}
h -t 0.26 -s 3 -d 1 -p cbr -e 540 -c 1 -i 36 -a 1 -x {3.0 1.0 -1 ------- null}
r -t 0.26036 -s 2 -d 1 -p cbr -e 540 -c 0 -i 31 -a 0 -x {2.0 0.0 0 ------- null}
+ -t 0.26036 -s 1 -d 0 -p cbr -e 540 -c 0 -i 31 -a 0 -x {2.0 0.0 0 ------- null}
- -t 0.26036 -s 1 -d 0 -p cbr -e 540 -c 0 -i 31 -a 0 -x {2.0 0.0 0 ------- null}
h -t 0.26036 -s 1 -d 0 -p cbr -e 540 -c 0 -i 31 -a 0 -x {2.0 0.0 -1 ------- null}
r -t 0.26036 -s 3 -d 1 -p cbr -e 540 -c 1 -i 32 -a 1 -x {3.0 1.0 0 ------- null}
+ -t 0.265 -s 2 -d 1 -p cbr -e 540 -c 0 -i 37 -a 0 -x {2.0 0.0 3 ------- null}
- -t 0.265 -s 2 -d 1 -p cbr -e 540 -c 0 -i 37 -a 0 -x {2.0 0.0 3 ------- null}
h -t 0.265 -s 2 -d 1 -p cbr -e 540 -c 0 -i 37 -a 0 -x {2.0 0.0 -1 ------- null}
+ -t 0.265 -s 3 -d 1 -p cbr -e 540 -c 1 -i 38 -a 1 -x {3.0 1.0 3 ------- null}
- -t 0.265 -s 3 -d 1 -p cbr -e 540 -c 1 -i 38 -a 1 -x {3.0 1.0 3 ------- null}
h -t 0.265 -s 3 -d 1 -p cbr -e 540 -c 1 -i 38 -a 1 -x {3.0 1.0 -1 ------- null}
r -t 0.26536 -s 2 -d 1 -p cbr -e 540 -c 0 -i 33 -a 0 -x {2.0 0.0 1 ------- null}
+ -t 0.26536 -s 1 -d 0 -p cbr -e 540 -c 0 -i 33 -a 0 -x {2.0 0.0 1 ------- null}
- -t 0.26536 -s 1 -d 0 -p cbr -e 540 -c 0 -i 33 -a 0 -x {2.0 0.0 1 ------- null}
h -t 0.26536 -s 1 -d 0 -p cbr -e 540 -c 0 -i 33 -a 0 -x {2.0 0.0 -1 ------- null}
r -t 0.26536 -s 3 -d 1 -p cbr -e 540 -c 1 -i 34 -a 1 -x {3.0 1.0 1 ------- null}
+ -t 0.27 -s 2 -d 1 -p cbr -e 540 -c 0 -i 39 -a 0 -x {2.0 0.0 4 ------- null}
- -t 0.27 -s 2 -d 1 -p cbr -e 540 -c 0 -i 39 -a 0 -x {2.0 0.0 4 ------- null}
h -t 0.27 -s 2 -d 1 -p cbr -e 540 -c 0 -i 39 -a 0 -x {2.0 0.0 -1 ------- null}
+ -t 0.27 -s 3 -d 1 -p cbr -e 540 -c 1 -i 40 -a 1 -x {3.0 1.0 4 ------- null}
- -t 0.27 -s 3 -d 1 -p cbr -e 540 -c 1 -i 40 -a 1 -x {3.0 1.0 4 ------- null}
h -t 0.27 -s 3 -d 1 -p cbr -e 540 -c 1 -i 40 -a 1 -x {3.0 1.0 -1 ------- null}
r -t 0.27036 -s 2 -d 1 -p cbr -e 540 -c 0 -i 35 -a 0 -x {2.0 0.0 2 ------- null}
+ -t 0.27036 -s 1 -d 0 -p cbr -e 540 -c 0 -i 35 -a 0 -x {2.0 0.0 2 ------- null}
- -t 0.27036 -s 1 -d 0 -p cbr -e 540 -c 0 -i 35 -a 0 -x {2.0 0.0 2 ------- null}
h -t 0.27036 -s 1 -d 0 -p cbr -e 540 -c 0 -i 35 -a 0 -x {2.0 0.0 -1 ------- null}
r -t 0.27036 -s 3 -d 1 -p cbr -e 540 -c 1 -i 36 -a 1 -x {3.0 1.0 2 ------- null}
r -t 0.27396 -s 1 -d 0 -p cbr -e 540 -c 0 -i 31 -a 0 -x {2.0 0.0 0 ------- null}
+ -t 0.275 -s 2 -d 1 -p cbr -e 540 -c 0 -i 41 -a 0 -x {2.0 0.0 5 ------- null}
- -t 0.275 -s 2 -d 1 -p cbr -e 540 -c 0 -i 41 -a 0 -x {2.0 0.0 5 ------- null}
h -t 0.275 -s 2 -d 1 -p cbr -e 540 -c 0 -i 41 -a 0 -x {2.0 0.0 -1 ------- null}
+ -t 0.275 -s 3 -d 1 -p cbr -e 540 -c 1 -i 42 -a 1 -x {3.0 1.0 5 ------- null}
- -t 0.275 -s 3 -d 1 -p cbr -e 540 -c 1 -i 42 -a 1 -x {3.0 1.0 5 ------- null}
h -t 0.275 -s 3 -d 1 -p cbr -e 540 -c 1 -i 42 -a 1 -x {3.0 1.0 -1 ------- null}
r -t 0.27536 -s 2 -d 1 -p cbr -e 540 -c 0 -i 37 -a 0 -x {2.0 0.0 3 ------- null}
+ -t 0.27536 -s 1 -d 0 -p cbr -e 540 -c 0 -i 37 -a 0 -x {2.0 0.0 3 ------- null}
- -t 0.27536 -s 1 -d 0 -p cbr -e 540 -c 0 -i 37 -a 0 -x {2.0 0.0 3 ------- null}
h -t 0.27536 -s 1 -d 0 -p cbr -e 540 -c 0 -i 37 -a 0 -x {2.0 0.0 -1 ------- null}
r -t 0.27536 -s 3 -d 1 -p cbr -e 540 -c 1 -i 38 -a 1 -x {3.0 1.0 3 ------- null}
+ -t 0.277940357931862 -s 1 -d 0 -p rtProtoDV -e 4 -c 0 -i 43 -a 0 -x {1.2 0.2 -1 ------- null}
+ -t 0.277940357931862 -s 1 -d 2 -p rtProtoDV -e 4 -c 0 -i 44 -a 0 -x {1.2 2.2 -1 ------- null}
- -t 0.277940357931862 -s 1 -d 2 -p rtProtoDV -e 4 -c 0 -i 44 -a 0 -x {1.2 2.2 -1 ------- null}
h -t 0.277940357931862 -s 1 -d 2 -p rtProtoDV -e 4 -c 0 -i 44 -a 0 -x {1.2 2.2 -1 ------- null}
+ -t 0.277940357931862 -s 1 -d 3 -p rtProtoDV -e 4 -c 0 -i 45 -a 0 -x {1.2 3.2 -1 ------- null}
- -t 0.277940357931862 -s 1 -d 3 -p rtProtoDV -e 4 -c 0 -i 45 -a 0 -x {1.2 3.2 -1 ------- null}
h -t 0.277940357931862 -s 1 -d 3 -p rtProtoDV -e 4 -c 0 -i 45 -a 0 -x {1.2 3.2 -1 ------- null}
r -t 0.27896 -s 1 -d 0 -p cbr -e 540 -c 0 -i 33 -a 0 -x {2.0 0.0 1 ------- null}
- -t 0.27896 -s 1 -d 0 -p rtProtoDV -e 4 -c 0 -i 43 -a 0 -x {1.2 0.2 -1 ------- null}
h -t 0.27896 -s 1 -d 0 -p rtProtoDV -e 4 -c 0 -i 43 -a 0 -x {1.2 0.2 -1 ------- null}
+ -t 0.28 -s 2 -d 1 -p cbr -e 540 -c 0 -i 46 -a 0 -x {2.0 0.0 6 ------- null}
- -t 0.28 -s 2 -d 1 -p cbr -e 540 -c 0 -i 46 -a 0 -x {2.0 0.0 6 ------- null}
h -t 0.28 -s 2 -d 1 -p cbr -e 540 -c 0 -i 46 -a 0 -x {2.0 0.0 -1 ------- null}
+ -t 0.28 -s 3 -d 1 -p cbr -e 540 -c 1 -i 47 -a 1 -x {3.0 1.0 6 ------- null}
- -t 0.28 -s 3 -d 1 -p cbr -e 540 -c 1 -i 47 -a 1 -x {3.0 1.0 6 ------- null}
h -t 0.28 -s 3 -d 1 -p cbr -e 540 -c 1 -i 47 -a 1 -x {3.0 1.0 -1 ------- null}
r -t 0.28036 -s 2 -d 1 -p cbr -e 540 -c 0 -i 39 -a 0 -x {2.0 0.0 4 ------- null}
+ -t 0.28036 -s 1 -d 0 -p cbr -e 540 -c 0 -i 39 -a 0 -x {2.0 0.0 4 ------- null}
- -t 0.28036 -s 1 -d 0 -p cbr -e 540 -c 0 -i 39 -a 0 -x {2.0 0.0 4 ------- null}
h -t 0.28036 -s 1 -d 0 -p cbr -e 540 -c 0 -i 39 -a 0 -x {2.0 0.0 -1 ------- null}
r -t 0.28036 -s 3 -d 1 -p cbr -e 540 -c 1 -i 40 -a 1 -x {3.0 1.0 4 ------- null}
r -t 0.28396 -s 1 -d 0 -p cbr -e 540 -c 0 -i 35 -a 0 -x {2.0 0.0 2 ------- null}
+ -t 0.285 -s 2 -d 1 -p cbr -e 540 -c 0 -i 48 -a 0 -x {2.0 0.0 7 ------- null}
- -t 0.285 -s 2 -d 1 -p cbr -e 540 -c 0 -i 48 -a 0 -x {2.0 0.0 7 ------- null}
h -t 0.285 -s 2 -d 1 -p cbr -e 540 -c 0 -i 48 -a 0 -x {2.0 0.0 -1 ------- null}
+ -t 0.285 -s 3 -d 1 -p cbr -e 540 -c 1 -i 49 -a 1 -x {3.0 1.0 7 ------- null}
- -t 0.285 -s 3 -d 1 -p cbr -e 540 -c 1 -i 49 -a 1 -x {3.0 1.0 7 ------- null}
h -t 0.285 -s 3 -d 1 -p cbr -e 540 -c 1 -i 49 -a 1 -x {3.0 1.0 -1 ------- null}
r -t 0.28536 -s 2 -d 1 -p cbr -e 540 -c 0 -i 41 -a 0 -x {2.0 0.0 5 ------- null}
+ -t 0.28536 -s 1 -d 0 -p cbr -e 540 -c 0 -i 41 -a 0 -x {2.0 0.0 5 ------- null}
- -t 0.28536 -s 1 -d 0 -p cbr -e 540 -c 0 -i 41 -a 0 -x {2.0 0.0 5 ------- null}
h -t 0.28536 -s 1 -d 0 -p cbr -e 540 -c 0 -i 41 -a 0 -x {2.0 0.0 -1 ------- null}
r -t 0.28536 -s 3 -d 1 -p cbr -e 540 -c 1 -i 42 -a 1 -x {3.0 1.0 5 ------- null}
r -t 0.287943024598528 -s 1 -d 2 -p rtProtoDV -e 4 -c 0 -i 44 -a 0 -x {1.2 2.2 -1 ------- null}
r -t 0.287943024598528 -s 1 -d 3 -p rtProtoDV -e 4 -c 0 -i 45 -a 0 -x {1.2 3.2 -1 ------- null}
r -t 0.28896 -s 1 -d 0 -p cbr -e 540 -c 0 -i 37 -a 0 -x {2.0 0.0 3 ------- null}
r -t 0.288986666666667 -s 1 -d 0 -p rtProtoDV -e 4 -c 0 -i 43 -a 0 -x {1.2 0.2 -1 ------- null}
+ -t 0.29 -s 2 -d 1 -p cbr -e 540 -c 0 -i 50 -a 0 -x {2.0 0.0 8 ------- null}
- -t 0.29 -s 2 -d 1 -p cbr -e 540 -c 0 -i 50 -a 0 -x {2.0 0.0 8 ------- null}
h -t 0.29 -s 2 -d 1 -p cbr -e 540 -c 0 -i 50 -a 0 -x {2.0 0.0 -1 ------- null}
+ -t 0.29 -s 3 -d 1 -p cbr -e 540 -c 1 -i 51 -a 1 -x {3.0 1.0 8 ------- null}
- -t 0.29 -s 3 -d 1 -p cbr -e 540 -c 1 -i 51 -a 1 -x {3.0 1.0 8 ------- null}
h -t 0.29 -s 3 -d 1 -p cbr -e 540 -c 1 -i 51 -a 1 -x {3.0 1.0 -1 ------- null}
r -t 0.29036 -s 2 -d 1 -p cbr -e 540 -c 0 -i 46 -a 0 -x {2.0 0.0 6 ------- null}
+ -t 0.29036 -s 1 -d 0 -p cbr -e 540 -c 0 -i 46 -a 0 -x {2.0 0.0 6 ------- null}
- -t 0.29036 -s 1 -d 0 -p cbr -e 540 -c 0 -i 46 -a 0 -x {2.0 0.0 6 ------- null}
h -t 0.29036 -s 1 -d 0 -p cbr -e 540 -c 0 -i 46 -a 0 -x {2.0 0.0 -1 ------- null}
r -t 0.29036 -s 3 -d 1 -p cbr -e 540 -c 1 -i 47 -a 1 -x {3.0 1.0 6 ------- null}
r -t 0.29396 -s 1 -d 0 -p cbr -e 540 -c 0 -i 39 -a 0 -x {2.0 0.0 4 ------- null}
+ -t 0.295 -s 2 -d 1 -p cbr -e 540 -c 0 -i 52 -a 0 -x {2.0 0.0 9 ------- null}
- -t 0.295 -s 2 -d 1 -p cbr -e 540 -c 0 -i 52 -a 0 -x {2.0 0.0 9 ------- null}
h -t 0.295 -s 2 -d 1 -p cbr -e 540 -c 0 -i 52 -a 0 -x {2.0 0.0 -1 ------- null}
+ -t 0.295 -s 3 -d 1 -p cbr -e 540 -c 1 -i 53 -a 1 -x {3.0 1.0 9 ------- null}
- -t 0.295 -s 3 -d 1 -p cbr -e 540 -c 1 -i 53 -a 1 -x {3.0 1.0 9 ------- null}
h -t 0.295 -s 3 -d 1 -p cbr -e 540 -c 1 -i 53 -a 1 -x {3.0 1.0 -1 ------- null}
r -t 0.29536 -s 2 -d 1 -p cbr -e 540 -c 0 -i 48 -a 0 -x {2.0 0.0 7 ------- null}
+ -t 0.29536 -s 1 -d 0 -p cbr -e 540 -c 0 -i 48 -a 0 -x {2.0 0.0 7 ------- null}
- -t 0.29536 -s 1 -d 0 -p cbr -e 540 -c 0 -i 48 -a 0 -x {2.0 0.0 7 ------- null}
h -t 0.29536 -s 1 -d 0 -p cbr -e 540 -c 0 -i 48 -a 0 -x {2.0 0.0 -1 ------- null}
r -t 0.29536 -s 3 -d 1 -p cbr -e 540 -c 1 -i 49 -a 1 -x {3.0 1.0 7 ------- null}
r -t 0.29896 -s 1 -d 0 -p cbr -e 540 -c 0 -i 41 -a 0 -x {2.0 0.0 5 ------- null}
+ -t 0.3 -s 2 -d 1 -p cbr -e 540 -c 0 -i 54 -a 0 -x {2.0 0.0 10 ------- null}
- -t 0.3 -s 2 -d 1 -p cbr -e 540 -c 0 -i 54 -a 0 -x {2.0 0.0 10 ------- null}
h -t 0.3 -s 2 -d 1 -p cbr -e 540 -c 0 -i 54 -a 0 -x {2.0 0.0 -1 ------- null}
+ -t 0.3 -s 3 -d 1 -p cbr -e 540 -c 1 -i 55 -a 1 -x {3.0 1.0 10 ------- null}
- -t 0.3 -s 3 -d 1 -p cbr -e 540 -c 1 -i 55 -a 1 -x {3.0 1.0 10 ------- null}
h -t 0.3 -s 3 -d 1 -p cbr -e 540 -c 1 -i 55 -a 1 -x {3.0 1.0 -1 ------- null}
r -t 0.30036 -s 2 -d 1 -p cbr -e 540 -c 0 -i 50 -a 0 -x {2.0 0.0 8 ------- null}
+ -t 0.30036 -s 1 -d 0 -p cbr -e 540 -c 0 -i 50 -a 0 -x {2.0 0.0 8 ------- null}
- -t 0.30036 -s 1 -d 0 -p cbr -e 540 -c 0 -i 50 -a 0 -x {2.0 0.0 8 ------- null}
h -t 0.30036 -s 1 -d 0 -p cbr -e 540 -c 0 -i 50 -a 0 -x {2.0 0.0 -1 ------- null}
r -t 0.30036 -s 3 -d 1 -p cbr -e 540 -c 1 -i 51 -a 1 -x {3.0 1.0 8 ------- null}
r -t 0.30396 -s 1 -d 0 -p cbr -e 540 -c 0 -i 46 -a 0 -x {2.0 0.0 6 ------- null}
+ -t 0.305 -s 2 -d 1 -p cbr -e 540 -c 0 -i 56 -a 0 -x {2.0 0.0 11 ------- null}
- -t 0.305 -s 2 -d 1 -p cbr -e 540 -c 0 -i 56 -a 0 -x {2.0 0.0 11 ------- null}
h -t 0.305 -s 2 -d 1 -p cbr -e 540 -c 0 -i 56 -a 0 -x {2.0 0.0 -1 ------- null}
+ -t 0.305 -s 3 -d 1 -p cbr -e 540 -c 1 -i 57 -a 1 -x {3.0 1.0 11 ------- null}
- -t 0.305 -s 3 -d 1 -p cbr -e 540 -c 1 -i 57 -a 1 -x {3.0 1.0 11 ------- null}
h -t 0.305 -s 3 -d 1 -p cbr -e 540 -c 1 -i 57 -a 1 -x {3.0 1.0 -1 ------- null}
r -t 0.30536 -s 2 -d 1 -p cbr -e 540 -c 0 -i 52 -a 0 -x {2.0 0.0 9 ------- null}
+ -t 0.30536 -s 1 -d 0 -p cbr -e 540 -c 0 -i 52 -a 0 -x {2.0 0.0 9 ------- null}
- -t 0.30536 -s 1 -d 0 -p cbr -e 540 -c 0 -i 52 -a 0 -x {2.0 0.0 9 ------- null}
h -t 0.30536 -s 1 -d 0 -p cbr -e 540 -c 0 -i 52 -a 0 -x {2.0 0.0 -1 ------- null}
r -t 0.30536 -s 3 -d 1 -p cbr -e 540 -c 1 -i 53 -a 1 -x {3.0 1.0 9 ------- null}
r -t 0.30896 -s 1 -d 0 -p cbr -e 540 -c 0 -i 48 -a 0 -x {2.0 0.0 7 ------- null}
+ -t 0.31 -s 2 -d 1 -p cbr -e 540 -c 0 -i 58 -a 0 -x {2.0 0.0 12 ------- null}
- -t 0.31 -s 2 -d 1 -p cbr -e 540 -c 0 -i 58 -a 0 -x {2.0 0.0 12 ------- null}
h -t 0.31 -s 2 -d 1 -p cbr -e 540 -c 0 -i 58 -a 0 -x {2.0 0.0 -1 ------- null}
+ -t 0.31 -s 3 -d 1 -p cbr -e 540 -c 1 -i 59 -a 1 -x {3.0 1.0 12 ------- null}
- -t 0.31 -s 3 -d 1 -p cbr -e 540 -c 1 -i 59 -a 1 -x {3.0 1.0 12 ------- null}
h -t 0.31 -s 3 -d 1 -p cbr -e 540 -c 1 -i 59 -a 1 -x {3.0 1.0 -1 ------- null}
r -t 0.31036 -s 2 -d 1 -p cbr -e 540 -c 0 -i 54 -a 0 -x {2.0 0.0 10 ------- null}
+ -t 0.31036 -s 1 -d 0 -p cbr -e 540 -c 0 -i 54 -a 0 -x {2.0 0.0 10 ------- null}
- -t 0.31036 -s 1 -d 0 -p cbr -e 540 -c 0 -i 54 -a 0 -x {2.0 0.0 10 ------- null}
h -t 0.31036 -s 1 -d 0 -p cbr -e 540 -c 0 -i 54 -a 0 -x {2.0 0.0 -1 ------- null}
r -t 0.31036 -s 3 -d 1 -p cbr -e 540 -c 1 -i 55 -a 1 -x {3.0 1.0 10 ------- null}
r -t 0.31396 -s 1 -d 0 -p cbr -e 540 -c 0 -i 50 -a 0 -x {2.0 0.0 8 ------- null}
+ -t 0.315 -s 2 -d 1 -p cbr -e 540 -c 0 -i 60 -a 0 -x {2.0 0.0 13 ------- null}
- -t 0.315 -s 2 -d 1 -p cbr -e 540 -c 0 -i 60 -a 0 -x {2.0 0.0 13 ------- null}
h -t 0.315 -s 2 -d 1 -p cbr -e 540 -c 0 -i 60 -a 0 -x {2.0 0.0 -1 ------- null}
+ -t 0.315 -s 3 -d 1 -p cbr -e 540 -c 1 -i 61 -a 1 -x {3.0 1.0 13 ------- null}
- -t 0.315 -s 3 -d 1 -p cbr -e 540 -c 1 -i 61 -a 1 -x {3.0 1.0 13 ------- null}
h -t 0.315 -s 3 -d 1 -p cbr -e 540 -c 1 -i 61 -a 1 -x {3.0 1.0 -1 ------- null}
r -t 0.31536 -s 2 -d 1 -p cbr -e 540 -c 0 -i 56 -a 0 -x {2.0 0.0 11 ------- null}
+ -t 0.31536 -s 1 -d 0 -p cbr -e 540 -c 0 -i 56 -a 0 -x {2.0 0.0 11 ------- null}
- -t 0.31536 -s 1 -d 0 -p cbr -e 540 -c 0 -i 56 -a 0 -x {2.0 0.0 11 ------- null}
h -t 0.31536 -s 1 -d 0 -p cbr -e 540 -c 0 -i 56 -a 0 -x {2.0 0.0 -1 ------- null}
r -t 0.31536 -s 3 -d 1 -p cbr -e 540 -c 1 -i 57 -a 1 -x {3.0 1.0 11 ------- null}
r -t 0.31896 -s 1 -d 0 -p cbr -e 540 -c 0 -i 52 -a 0 -x {2.0 0.0 9 ------- null}
+ -t 0.32 -s 2 -d 1 -p cbr -e 540 -c 0 -i 62 -a 0 -x {2.0 0.0 14 ------- null}
- -t 0.32 -s 2 -d 1 -p cbr -e 540 -c 0 -i 62 -a 0 -x {2.0 0.0 14 ------- null}
h -t 0.32 -s 2 -d 1 -p cbr -e 540 -c 0 -i 62 -a 0 -x {2.0 0.0 -1 ------- null}
+ -t 0.32 -s 3 -d 1 -p cbr -e 540 -c 1 -i 63 -a 1 -x {3.0 1.0 14 ------- null}
- -t 0.32 -s 3 -d 1 -p cbr -e 540 -c 1 -i 63 -a 1 -x {3.0 1.0 14 ------- null}
h -t 0.32 -s 3 -d 1 -p cbr -e 540 -c 1 -i 63 -a 1 -x {3.0 1.0 -1 ------- null}
r -t 0.32036 -s 2 -d 1 -p cbr -e 540 -c 0 -i 58 -a 0 -x {2.0 0.0 12 ------- null}
+ -t 0.32036 -s 1 -d 0 -p cbr -e 540 -c 0 -i 58 -a 0 -x {2.0 0.0 12 ------- null}
- -t 0.32036 -s 1 -d 0 -p cbr -e 540 -c 0 -i 58 -a 0 -x {2.0 0.0 12 ------- null}
h -t 0.32036 -s 1 -d 0 -p cbr -e 540 -c 0 -i 58 -a 0 -x {2.0 0.0 -1 ------- null}
r -t 0.32036 -s 3 -d 1 -p cbr -e 540 -c 1 -i 59 -a 1 -x {3.0 1.0 12 ------- null}
r -t 0.32396 -s 1 -d 0 -p cbr -e 540 -c 0 -i 54 -a 0 -x {2.0 0.0 10 ------- null}
+ -t 0.325 -s 2 -d 1 -p cbr -e 540 -c 0 -i 64 -a 0 -x {2.0 0.0 15 ------- null}
- -t 0.325 -s 2 -d 1 -p cbr -e 540 -c 0 -i 64 -a 0 -x {2.0 0.0 15 ------- null}
h -t 0.325 -s 2 -d 1 -p cbr -e 540 -c 0 -i 64 -a 0 -x {2.0 0.0 -1 ------- null}
+ -t 0.325 -s 3 -d 1 -p cbr -e 540 -c 1 -i 65 -a 1 -x {3.0 1.0 15 ------- null}
- -t 0.325 -s 3 -d 1 -p cbr -e 540 -c 1 -i 65 -a 1 -x {3.0 1.0 15 ------- null}
h -t 0.325 -s 3 -d 1 -p cbr -e 540 -c 1 -i 65 -a 1 -x {3.0 1.0 -1 ------- null}
r -t 0.32536 -s 2 -d 1 -p cbr -e 540 -c 0 -i 60 -a 0 -x {2.0 0.0 13 ------- null}
+ -t 0.32536 -s 1 -d 0 -p cbr -e 540 -c 0 -i 60 -a 0 -x {2.0 0.0 13 ------- null}
- -t 0.32536 -s 1 -d 0 -p cbr -e 540 -c 0 -i 60 -a 0 -x {2.0 0.0 13 ------- null}